 Gaussian 16, Revision A.03,
 Gaussian 16:  ES64L-G16RevA.03 25-Dec-2016

 ----------------------------------------------------------------------
 # irc=(maxpoints=100,recorrect=never,calcfc,maxcycles=500,nogradstop)
 MN15/gen scrf=(smd,solvent=DiChloroEthane)
 ----------------------------------------------------------------------

 -----------------------------------------------------------
 IRC for Going from i2 to i3, where we are forming bond 7-66
 -----------------------------------------------------------
 Symbolic Z-matrix:
 Charge =  0 Multiplicity = 1

 SCF Done:  E(RMN15) =  -4931.91551306     A.U. after   15 cycles
 SCF Done:  E(RMN15) =  -4931.91576497     A.U. after   11 cycles
 SCF Done:  E(RMN15) =  -4931.91658884     A.U. after   11 cycles
 SCF Done:  E(RMN15) =  -4931.91797110     A.U. after   11 cycles
 SCF Done:  E(RMN15) =  -4931.91981936     A.U. after   11 cycles
 SCF Done:  E(RMN15) =  -4931.92197061     A.U. after   11 cycles
 SCF Done:  E(RMN15) =  -4931.92417125     A.U. after   11 cycles
 SCF Done:  E(RMN15) =  -4931.92609689     A.U. after   11 cycles
 SCF Done:  E(RMN15) =  -4931.92744226     A.U. after   11 cycles
 SCF Done:  E(RMN15) =  -4931.92816333     A.U. after   10 cycles
 SCF Done:  E(RMN15) =  -4931.92148576     A.U. after    9 cycles
 SCF Done:  E(RMN15) =  -4931.92150912     A.U. after    9 cycles
 SCF Done:  E(RMN15) =  -4931.92153041     A.U. after    9 cycles
 SCF Done:  E(RMN15) =  -4931.92155325     A.U. after    9 cycles
 SCF Done:  E(RMN15) =  -4931.92157365     A.U. after    9 cycles
 SCF Done:  E(RMN15) =  -4931.92159049     A.U. after    9 cycles
 SCF Done:  E(RMN15) =  -4931.92159987     A.U. after   10 cycles
 SCF Done:  E(RMN15) =  -4931.92161128     A.U. after    9 cycles
 SCF Done:  E(RMN15) =  -4931.92162364     A.U. after    9 cycles
 SCF Done:  E(RMN15) =  -4931.92163244     A.U. after    9 cycles

                          Input orientation:
 ---------------------------------------------------------------------
 Center     Atomic      Atomic             Coordinates (Angstroms)
 Number     Number       Type             X           Y           Z
 ---------------------------------------------------------------------
      1          6           0       -1.805909    0.120985    1.213155
      2          6           0       -1.468249    0.154599   -0.161558
      3          6           0       -0.750055   -0.134833    2.125717
      4          8           0        0.463397   -0.337637    1.821591
      5          8           0       -0.312357    0.212384   -0.662793
      6          8           0       -2.491308    0.057155   -1.000518
      7          8           0       -1.084042   -0.244937    3.407027
      8          6           0       -2.212049    0.082601   -2.398860
      9          6           0       -0.040321   -0.495071    4.345720
     10          1           0       -3.156772   -0.140786   -2.907718
     11          1           0       -1.449091   -0.666679   -2.655572
     12          1           0       -1.852701    1.075527   -2.700230
     13          1           0       -0.513632   -0.502243    5.333224
     14          1           0        0.720087    0.296066    4.296165
     15          1           0        0.437209   -1.464797    4.149043
     16          8           0        3.367072   -0.869564    0.938734
     17          8           0        2.296525   -0.374755   -1.756582
     18          8           0        0.516623    2.277396    1.015676
     19         16           0        1.063644    3.097599   -0.093895
     20         16           0        4.036290    0.257756    1.658957
     21         16           0        1.947004   -1.827856   -1.674916
     22          8           0        1.899825    2.160827   -0.912237
     23          8           0        1.627494    4.387926    0.213912
     24          8           0        3.050893    1.376053    1.586839
     25          8           0        4.668300   -0.022548    2.920977
     26          8           0        1.318198   -2.023926   -0.346407
     27          8           0        1.277451   -2.407435   -2.819328
     28          6           0        3.604121   -2.685851   -1.570750
     29          6           0        5.361167    0.771376    0.490793
     30          6           0       -0.405633    3.446739   -1.199004
     31          9           0        3.624370   -3.474323   -0.513955
     32          9           0        4.575837   -1.798960   -1.482946
     33          9           0        3.776438   -3.411896   -2.661140
     34          9           0        4.810098    1.035117   -0.681054
     35          9           0        6.237966   -0.206102    0.361770
     36          9           0        5.962988    1.851131    0.952135
     37          9           0       -1.505590    2.930732   -0.670863
     38          9           0       -0.208521    2.915268   -2.391375
     39          9           0       -0.557781    4.750970   -1.320447
     40          6           0       -4.534969   -0.048158    1.167673
     41          6           0       -4.668236   -1.612760    1.162874
     42          6           0       -5.969285   -2.055349    0.620457
     43          6           0       -4.632782   -2.048183    2.577541
     44          6           0       -1.341778   -3.086218    0.287581
     45          6           0       -2.855230   -3.095262   -1.568987
     46          6           0       -1.557214   -3.324400   -1.052872
     47          1           0       -0.380841   -3.259252    0.770532
     48          1           0       -3.107136   -3.312359   -2.609048
     49          1           0       -0.761296   -3.689114   -1.704738
     50          7           0       -7.019147   -2.390313    0.270897
     51          7           0       -4.618246   -2.349487    3.693984
     52          7           0       -3.571066   -2.322402    0.426939
     53          7           0       -3.827992   -2.600090   -0.837479
     54          6           0       -2.400253   -2.553021    1.031482
     55          1           0       -2.336020   -2.363555    2.103942
     56          6           0       -3.185071    0.456480    1.756751
     57          1           0       -3.297619    1.553008    1.773415
     58          1           0       -3.181295    0.159502    2.814955
     59         21           0        1.565715    0.300590    0.221293
     60          1           0       -5.243012    0.206715    1.974894
     61          6           0       -5.089783    0.720147   -0.028540
     62          6           0       -5.359205    2.079432    0.198703
     63          6           0       -5.389928    0.190307   -1.288208
     64          6           0       -5.886541    2.890117   -0.805765
     65          1           0       -5.161708    2.510243    1.184598
     66          6           0       -5.929526    0.997886   -2.293869
     67          1           0       -5.188063   -0.856749   -1.514908
     68          6           0       -6.174479    2.351094   -2.061902
     69          1           0       -6.083441    3.944707   -0.600370
     70          1           0       -6.152443    0.558402   -3.268907
     71          1           0       -6.592463    2.980459   -2.850714
 ---------------------------------------------------------------------

 Alpha  occ. eigenvalues -- -160.19755 -88.05893 -88.05210 -88.05105 -24.33923
 Alpha  occ. eigenvalues --  -24.33845 -24.33821 -24.33802 -24.33653 -24.33475
 Alpha  occ. eigenvalues --  -24.33339 -24.33323 -24.33302 -18.87664 -18.87284
 Alpha  occ. eigenvalues --  -18.84404 -18.84299 -18.83694 -18.83527 -18.83500
 Alpha  occ. eigenvalues --  -18.83405 -18.83150 -18.83092 -18.83034 -18.82871
 Alpha  occ. eigenvalues --  -18.82514 -17.18315 -14.48476 -14.48438 -14.48357
 Alpha  occ. eigenvalues --  -14.28797 -14.21011 -14.15468 -14.14675 -10.33272
 Alpha  occ. eigenvalues --  -10.32899 -10.32851 -10.23106 -10.20569 -10.20411
 Alpha  occ. eigenvalues --  -10.18326 -10.15107 -10.14585 -10.14100 -10.13019
 Alpha  occ. eigenvalues --  -10.12627 -10.11597 -10.10848 -10.10536 -10.08026
 Alpha  occ. eigenvalues --  -10.07742 -10.06146 -10.05967 -10.05928 -10.05789
 Alpha  occ. eigenvalues --  -10.05766 -10.05618  -7.95713  -7.95013  -7.94874
 Alpha  occ. eigenvalues --   -6.15225  -6.15185  -6.15064  -6.14527  -6.14481
 Alpha  occ. eigenvalues --   -6.14388  -6.14377  -6.14337  -6.14252  -2.14642
 Alpha  occ. eigenvalues --   -1.39309  -1.39100  -1.38987  -1.37630  -1.37376
 Alpha  occ. eigenvalues --   -1.37147  -1.27627  -1.27611  -1.27322  -1.27285
 Alpha  occ. eigenvalues --   -1.27103  -1.27019  -1.20229  -1.19357  -1.19073
 Alpha  occ. eigenvalues --   -1.17553  -1.16141  -1.15437  -1.07342  -1.06428
 Alpha  occ. eigenvalues --   -1.06086  -1.05869  -1.05102  -1.04777  -1.04454
 Alpha  occ. eigenvalues --   -1.04214  -1.00809  -0.97679  -0.96783  -0.92999
 Alpha  occ. eigenvalues --   -0.91013  -0.88579  -0.86148  -0.81846  -0.79973
 Alpha  occ. eigenvalues --   -0.79090  -0.79003  -0.78894  -0.78591  -0.78133
 Alpha  occ. eigenvalues --   -0.76624  -0.75461  -0.73768  -0.71944  -0.71447
 Alpha  occ. eigenvalues --   -0.71304  -0.69030  -0.67885  -0.67597  -0.67524
 Alpha  occ. eigenvalues --   -0.67399  -0.67248  -0.67086  -0.67030  -0.65559
 Alpha  occ. eigenvalues --   -0.64956  -0.63583  -0.63003  -0.62736  -0.62015
 Alpha  occ. eigenvalues --   -0.61622  -0.61342  -0.61028  -0.59695  -0.59106
 Alpha  occ. eigenvalues --   -0.58186  -0.57169  -0.56994  -0.56535  -0.56383
 Alpha  occ. eigenvalues --   -0.56074  -0.55914  -0.55700  -0.55531  -0.55381
 Alpha  occ. eigenvalues --   -0.54916  -0.54841  -0.54703  -0.54638  -0.54150
 Alpha  occ. eigenvalues --   -0.54094  -0.53711  -0.53598  -0.53354  -0.53074
 Alpha  occ. eigenvalues --   -0.52618  -0.52578  -0.52269  -0.51699  -0.51325
 Alpha  occ. eigenvalues --   -0.51296  -0.51147  -0.51078  -0.50979  -0.50628
 Alpha  occ. eigenvalues --   -0.50126  -0.49877  -0.48905  -0.48805  -0.48413
 Alpha  occ. eigenvalues --   -0.48310  -0.47994  -0.47726  -0.47333  -0.46739
 Alpha  occ. eigenvalues --   -0.46680  -0.46204  -0.45980  -0.45739  -0.45274
 Alpha  occ. eigenvalues --   -0.45054  -0.44568  -0.44165  -0.44049  -0.43655
 Alpha  occ. eigenvalues --   -0.43239  -0.42680  -0.42547  -0.42177  -0.41749
 Alpha  occ. eigenvalues --   -0.41576  -0.41330  -0.40918  -0.40592  -0.40393
 Alpha  occ. eigenvalues --   -0.40071  -0.39753  -0.39629  -0.39409  -0.39171
 Alpha  occ. eigenvalues --   -0.38921  -0.38786  -0.38566  -0.38189  -0.38125
 Alpha  occ. eigenvalues --   -0.37800  -0.37572  -0.37331  -0.37071  -0.37022
 Alpha  occ. eigenvalues --   -0.36510  -0.36130  -0.35903  -0.35516  -0.35230
 Alpha  occ. eigenvalues --   -0.34927  -0.29294  -0.28658  -0.26027
 Alpha virt. eigenvalues --   -0.10086  -0.05832  -0.02634  -0.01658  -0.00292
 Alpha virt. eigenvalues --   -0.00193   0.00551   0.01474   0.01540   0.01801
 Alpha virt. eigenvalues --    0.03322   0.04437   0.05565   0.06022   0.06931

 Mulliken charges:
               1
     1  C   -0.193711
     2  C    0.216485
     3  C    0.256664
     4  O   -0.321569
     5  O   -0.292210
     6  O   -0.278461
     7  O   -0.280819
     8  C    0.181199
     9  C    0.161562
    10  H    0.045486
    11  H    0.038171
    12  H    0.050715
    13  H    0.058424
    14  H    0.063386
    15  H    0.054028
    16  O   -0.436501
    17  O   -0.438728
    18  O   -0.424588
    19  S    0.884091
    20  S    0.867902
    21  S    0.861955
    22  O   -0.443206
    23  O   -0.407098
    24  O   -0.425718
    25  O   -0.396716
    26  O   -0.440042
    27  O   -0.419691
    28  C    0.435562
    29  C    0.440994
    30  C    0.422664
    31  F   -0.122758
    32  F   -0.116050
    33  F   -0.128884
    34  F   -0.104577
    35  F   -0.123081
    36  F   -0.123473
    37  F   -0.122947
    38  F   -0.115652
    39  F   -0.122445
    40  C    0.069031
    41  C   -0.078838
    42  C   -0.180226
    43  C   -0.199771
    44  C    0.082878
    45  C    0.068750
    46  C    0.073711
    47  H    0.089901
    48  H    0.093058
    49  H    0.070127
    50  N    0.152563
    51  N    0.145383
    52  N   -0.093109
    53  N    0.011956
    54  C    0.210695
    55  H    0.095940
    56  C    0.191339
    57  H    0.045811
    58  H    0.022838
    59  Sc   0.262768
    60  H    0.083224
    61  C    0.066737
    62  C   -0.054940
    63  C   -0.020634
    64  C    0.006108
    65  H    0.011873
    66  C   -0.001396
    67  H   -0.017368
    68  C    0.005892
    69  H    0.009792
    70  H    0.005306
    71  H    0.010240
 Sum of Mulliken charges =  -0.00000

 Dipole moment (field-independent basis, Debye):
    X=            -15.3459    Y=             -9.7062    Z=             -0.9006  Tot=             18.1801
 Quadrupole moment (field-independent basis, Debye-Ang):
   XX=           -358.9538   YY=           -322.9584   ZZ=           -321.9993
   XY=            -12.4472   XZ=              3.0481   YZ=              0.7574

  Exact polarizability:   0.000   0.000   0.000   0.000   0.000   0.000
 Approx polarizability: 473.664 -14.735 454.376  40.006  16.503 543.749

 Normal termination of Gaussian 16 at Thu Feb 13 14:22:07 2025.
