 Gaussian 16, Revision A.03,
 Gaussian 16:  ES64L-G16RevA.03 25-Dec-2016

 ------------------------------------------------------------------
 #P MN15/gen scf=(maxcyc=500) opt scrf=(smd,solvent=DiChloroEthane)
 ------------------------------------------------------------------

 ---
 Opt
 ---
 Symbolic Z-matrix:
 Charge =  0 Multiplicity = 1

 SCF Done:  E(RMN15) =  -487.054875007     A.U. after   14 cycles
 SCF Done:  E(RMN15) =  -487.069098875     A.U. after   14 cycles
 SCF Done:  E(RMN15) =  -487.077115633     A.U. after   15 cycles
 SCF Done:  E(RMN15) =  -487.079738247     A.U. after   15 cycles
 SCF Done:  E(RMN15) =  -487.079951055     A.U. after   14 cycles
 SCF Done:  E(RMN15) =  -487.079974070     A.U. after   11 cycles
 SCF Done:  E(RMN15) =  -487.079983488     A.U. after   10 cycles
 SCF Done:  E(RMN15) =  -487.079985409     A.U. after    9 cycles
 SCF Done:  E(RMN15) =  -487.079985620     A.U. after    8 cycles
 Optimization completed.
    -- Stationary point found.

                         Standard orientation:
 ---------------------------------------------------------------------
 Center     Atomic      Atomic             Coordinates (Angstroms)
 Number     Number       Type             X           Y           Z
 ---------------------------------------------------------------------
      1          6           0       -1.220797   -0.002417   -0.000219
      2          6           0       -1.866189   -1.256682   -0.000235
      3          6           0       -1.949993    1.201241   -0.000363
      4          7           0       -2.445711   -2.268768    0.000407
      5          7           0       -2.547197    2.204288   -0.000053
      6          6           0        0.874703    1.197867    0.000399
      7          6           0        2.099033   -1.192616   -0.000097
      8          6           0        2.259884    1.172645    0.000188
      9          1           0        0.288780    2.116696    0.000499
     10          6           0        2.911151   -0.054434   -0.000232
     11          1           0        2.523173   -2.199400   -0.000355
     12          1           0        2.802050    2.118892    0.000516
     13          1           0        3.997292   -0.140034   -0.000658
     14          7           0        0.179020    0.032763    0.000138
     15          7           0        0.777026   -1.152538   -0.000013
 ---------------------------------------------------------------------

 The electronic state is 1-A.
 Alpha  occ. eigenvalues --  -14.27090 -14.17171 -14.10481 -14.09772 -10.13531
 Alpha  occ. eigenvalues --  -10.12579 -10.12467 -10.10510 -10.10502 -10.10091
 Alpha  occ. eigenvalues --  -10.09402  -1.14343  -0.95789  -0.93115  -0.92838
 Alpha  occ. eigenvalues --   -0.89513  -0.81787  -0.75318  -0.72553  -0.65043
 Alpha  occ. eigenvalues --   -0.62330  -0.58181  -0.56196  -0.55958  -0.53158
 Alpha  occ. eigenvalues --   -0.47875  -0.45051  -0.44289  -0.42033  -0.41416
 Alpha  occ. eigenvalues --   -0.39664  -0.39054  -0.38480  -0.38401  -0.36784
 Alpha  occ. eigenvalues --   -0.35600  -0.24422
 Alpha virt. eigenvalues --   -0.06789  -0.03153   0.01637   0.07328   0.09021
 Alpha virt. eigenvalues --    0.11171   0.11955   0.14043   0.15852   0.18025
 Alpha virt. eigenvalues --    0.19854   0.20085   0.21820   0.23267   0.24601

 Mulliken charges:
               1
     1  C   -0.291717
     2  C   -0.110805
     3  C   -0.143018
     4  N    0.035972
     5  N    0.030755
     6  C    0.133491
     7  C    0.047143
     8  C    0.039368
     9  H    0.078271
    10  C    0.046475
    11  H    0.072797
    12  H    0.071325
    13  H    0.058748
    14  N   -0.018352
    15  N   -0.050454
 Sum of Mulliken charges =  -0.00000

 Dipole moment (field-independent basis, Debye):
    X=             12.7985    Y=              2.7415    Z=             -0.0009  Tot=             13.0888
 Quadrupole moment (field-independent basis, Debye-Ang):
   XX=            -63.0004   YY=            -73.6847   ZZ=            -62.8940
   XY=              0.0629   XZ=              0.0017   YZ=              0.0044

 Normal termination of Gaussian 16 at Tue Jan 28 15:32:12 2025.
