 Gaussian 16, Revision A.03,
 Gaussian 16:  ES64L-G16RevA.03 25-Dec-2016

 ----------------------------------------------------------------------
 #P UMN15/genecp scf=(maxcyc=500) opt scrf=(smd,solvent=DiChloroEthane)
 ----------------------------------------------------------------------

 ---
 Opt
 ---
 Symbolic Z-matrix:
 Charge =  0 Multiplicity = 1

 SCF Done:  E(UMN15) =  -5295.95701366     A.U. after   18 cycles
 SCF Done:  E(UMN15) =  -5295.96832275     A.U. after   15 cycles
 SCF Done:  E(UMN15) =  -5295.90266794     A.U. after   15 cycles
 SCF Done:  E(UMN15) =  -5295.98023163     A.U. after   14 cycles
 SCF Done:  E(UMN15) =  -5295.97803170     A.U. after   15 cycles
 SCF Done:  E(UMN15) =  -5295.98381468     A.U. after   13 cycles
 SCF Done:  E(UMN15) =  -5295.98643631     A.U. after   13 cycles
 SCF Done:  E(UMN15) =  -5295.98897180     A.U. after   13 cycles
 SCF Done:  E(UMN15) =  -5295.99048310     A.U. after   14 cycles
 SCF Done:  E(UMN15) =  -5295.99203502     A.U. after   13 cycles
 SCF Done:  E(UMN15) =  -5295.99630229     A.U. after    8 cycles
 SCF Done:  E(UMN15) =  -5295.99630766     A.U. after    8 cycles
 SCF Done:  E(UMN15) =  -5295.99631479     A.U. after    8 cycles
 SCF Done:  E(UMN15) =  -5295.99631985     A.U. after    8 cycles
 SCF Done:  E(UMN15) =  -5295.99632330     A.U. after    9 cycles
 SCF Done:  E(UMN15) =  -5295.99632995     A.U. after    9 cycles
 SCF Done:  E(UMN15) =  -5295.99633419     A.U. after   10 cycles
 SCF Done:  E(UMN15) =  -5295.99633534     A.U. after    7 cycles
 SCF Done:  E(UMN15) =  -5295.99633612     A.U. after    7 cycles
 SCF Done:  E(UMN15) =  -5295.99633635     A.U. after    7 cycles
 Optimization completed.
    -- Stationary point found.

                         Standard orientation:
 ---------------------------------------------------------------------
 Center     Atomic      Atomic             Coordinates (Angstroms)
 Number     Number       Type             X           Y           Z
 ---------------------------------------------------------------------
      1          6           0        4.204280   -1.713284    1.274780
      2          6           0        5.536381   -1.281540    1.290668
      3          6           0        6.202490   -1.121489    2.506977
      4          6           0        5.549708   -1.414833    3.707940
      5          6           0        4.232389   -1.880334    3.690332
      6          6           0        3.558171   -2.030049    2.476952
      7          6           0        2.199565   -0.995441   -0.162942
      8          6           0        1.560456   -0.716762   -1.517492
      9          6           0        1.641002   -0.140608    0.969592
     10          1           0        6.049335   -1.069674    0.349647
     11          1           0        7.235384   -0.766285    2.515060
     12          1           0        6.072940   -1.290363    4.658575
     13          1           0        3.726088   -2.129533    4.625456
     14          1           0        2.528809   -2.399138    2.458638
     15          8           0        0.449388   -0.272922    1.241291
     16          8           0        0.365075   -0.419723   -1.521872
     17          8           0       -2.369789    0.505418    1.820558
     18          8           0       -2.483086    1.036541   -1.453504
     19          8           0       -0.919549   -2.621053    0.384638
     20         16           0       -1.672388   -3.213428   -0.773603
     21         16           0       -3.612943   -0.336826    1.872317
     22         16           0       -1.599380    2.235777   -1.269607
     23          8           0       -2.065302   -2.039007   -1.612364
     24          8           0       -2.667275   -4.210727   -0.484542
     25          8           0       -3.514853   -1.209649    0.662891
     26          8           0       -3.949868   -0.945907    3.129843
     27          8           0       -0.619592    1.844702   -0.215623
     28          8           0       -1.086173    2.858663   -2.466150
     29          6           0       -2.674475    3.511745   -0.479464
     30          6           0       -4.982411    0.836815    1.493607
     31          6           0       -0.371416   -4.094577   -1.740320
     32          9           0       -2.030556    4.664253   -0.511937
     33          9           0       -2.924551    3.181608    0.771208
     34          9           0       -3.799629    3.606941   -1.155822
     35          9           0       -4.863613    1.280421    0.255828
     36          9           0       -4.924177    1.846575    2.338968
     37          9           0       -6.129343    0.203030    1.629835
     38          9           0        0.434438   -3.221586   -2.321122
     39          9           0       -0.955431   -4.831707   -2.663463
     40          9           0        0.319558   -4.862090   -0.923595
     41          6           0        3.454928   -1.770445   -0.014386
     42          1           0        4.044370   -1.965946   -0.917352
     43          6           0        5.290940    1.865517   -0.598758
     44          6           0        5.471870    0.782092   -1.479223
     45          6           0        6.221780    2.144268    0.419645
     46          6           0        2.715904    4.448834   -0.128109
     47          6           0        2.046390    2.761229   -1.654014
     48          6           0        1.735143    3.942236   -0.968647
     49          1           0        2.575688    5.368123    0.441645
     50          1           0        1.335922    2.299635   -2.344350
     51          1           0        0.764143    4.419747   -1.098190
     52          7           0        5.655649   -0.134336   -2.179542
     53          7           0        6.987705    2.356799    1.274671
     54          7           0        4.113271    2.619721   -0.703618
     55          7           0        3.190102    2.113014   -1.515476
     56          6           0        3.922756    3.769989   -0.015768
     57          1           0        4.751677    4.113760    0.603287
     58         71           0       -1.415070   -0.421209   -0.051385
     59          8           0        2.182098   -2.395522    0.041123
     60          6           0        2.451950    0.907170    1.640038
     61          1           0        2.040959    1.872304    1.287452
     62          1           0        2.269693    0.870928    2.723911
     63          1           0        3.524614    0.840930    1.422615
     64          6           0        2.327062   -0.935176   -2.760690
     65          1           0        3.212297   -0.282140   -2.770573
     66          1           0        2.700812   -1.972686   -2.765203
     67          1           0        1.687454   -0.764218   -3.633991
 ---------------------------------------------------------------------

 The electronic state is 1-A.
 Alpha  occ. eigenvalues --  -88.07273 -88.06734 -88.06397 -24.34937 -24.34920
 Alpha  occ. eigenvalues --  -24.34807 -24.34723 -24.34675 -24.34467 -24.34400
 Alpha  occ. eigenvalues --  -24.34251 -24.34242 -18.88429 -18.87905 -18.87788
 Alpha  occ. eigenvalues --  -18.86017 -18.85603 -18.85521 -18.85279 -18.85046
 Alpha  occ. eigenvalues --  -18.84791 -18.84739 -18.84118 -18.83612 -17.83508
 Alpha  occ. eigenvalues --  -14.27774 -14.18293 -14.11061 -14.10838 -11.58390
 Alpha  occ. eigenvalues --  -11.58340 -11.58310 -10.34600 -10.34159 -10.33939
 Alpha  occ. eigenvalues --  -10.21166 -10.21027 -10.15867 -10.14389 -10.14382
 Alpha  occ. eigenvalues --  -10.13440 -10.13220 -10.11197 -10.11184 -10.11096
 Alpha  occ. eigenvalues --  -10.10199 -10.07676 -10.07622 -10.07092 -10.06533
 Alpha  occ. eigenvalues --  -10.06484 -10.06237 -10.06211 -10.06121  -7.97122
 Alpha  occ. eigenvalues --   -7.96617  -7.96246  -6.16650  -6.16590  -6.16460
 Alpha  occ. eigenvalues --   -6.16142  -6.16081  -6.15951  -6.15773  -6.15714
 Alpha  occ. eigenvalues --   -6.15589  -5.43393  -5.43346  -5.43331  -5.43303
 Alpha  occ. eigenvalues --   -5.43289  -2.36522  -1.38801  -1.38364  -1.38257
 Alpha  occ. eigenvalues --   -1.28765  -1.28721  -1.28362  -1.28291  -1.28276
 Alpha  occ. eigenvalues --   -1.28124  -1.26263  -1.25852  -1.24755  -1.21176
 Alpha  occ. eigenvalues --   -1.20087  -1.19219  -1.17392  -1.15125  -1.13674
 Alpha  occ. eigenvalues --   -1.13026  -1.08276  -1.07812  -1.07212  -1.06555
 Alpha  occ. eigenvalues --   -1.05975  -1.05494  -0.96519  -0.94041  -0.93562
 Alpha  occ. eigenvalues --   -0.90598  -0.90214  -0.83932  -0.82557  -0.82262
 Alpha  occ. eigenvalues --   -0.81145  -0.80878  -0.80774  -0.80415  -0.78688
 Alpha  occ. eigenvalues --   -0.76608  -0.76060  -0.73261  -0.73173  -0.72681
 Alpha  occ. eigenvalues --   -0.72530  -0.71906  -0.68867  -0.68710  -0.68292
 Alpha  occ. eigenvalues --   -0.68165  -0.68054  -0.68035  -0.67381  -0.65797
 Alpha  occ. eigenvalues --   -0.64562  -0.64201  -0.63868  -0.63454  -0.63376
 Alpha  occ. eigenvalues --   -0.63221  -0.63163  -0.63106  -0.63057  -0.63040
 Alpha  occ. eigenvalues --   -0.62975  -0.62601  -0.62243  -0.60906  -0.60160
 Alpha  occ. eigenvalues --   -0.59168  -0.59069  -0.58179  -0.57980  -0.57426
 Alpha  occ. eigenvalues --   -0.57016  -0.56847  -0.56574  -0.56483  -0.56345
 Alpha  occ. eigenvalues --   -0.56105  -0.55907  -0.55495  -0.55293  -0.55223
 Alpha  occ. eigenvalues --   -0.54980  -0.54660  -0.54467  -0.54255  -0.54046
 Alpha  occ. eigenvalues --   -0.53810  -0.53629  -0.53324  -0.52826  -0.52604
 Alpha  occ. eigenvalues --   -0.52406  -0.52189  -0.52010  -0.51806  -0.51597
 Alpha  occ. eigenvalues --   -0.51238  -0.51004  -0.50170  -0.49883  -0.49553
 Alpha  occ. eigenvalues --   -0.49435  -0.48536  -0.48130  -0.47896  -0.47450
 Alpha  occ. eigenvalues --   -0.46856  -0.46413  -0.46157  -0.45849  -0.45777
 Alpha  occ. eigenvalues --   -0.45402  -0.44757  -0.44383  -0.43907  -0.43667
 Alpha  occ. eigenvalues --   -0.43430  -0.43094  -0.42758  -0.42645  -0.42207
 Alpha  occ. eigenvalues --   -0.41768  -0.41211  -0.40867  -0.40740  -0.40420
 Alpha  occ. eigenvalues --   -0.40311  -0.40235  -0.40092  -0.39831  -0.39695
 Alpha  occ. eigenvalues --   -0.39143  -0.38938  -0.38694  -0.38593  -0.38512
 Alpha  occ. eigenvalues --   -0.38250  -0.37671  -0.37481  -0.37348  -0.37231
 Alpha  occ. eigenvalues --   -0.37088  -0.36520  -0.36456  -0.33924  -0.29839
 Alpha  occ. eigenvalues --   -0.29202  -0.25208
 Alpha virt. eigenvalues --   -0.08474  -0.07295  -0.04776  -0.04040  -0.00365
 Alpha virt. eigenvalues --    0.00549   0.01018   0.03322   0.04678   0.05572
 Alpha virt. eigenvalues --    0.05839   0.05912   0.06220   0.07946   0.08088

  Beta  occ. eigenvalues --  -88.07273 -88.06734 -88.06397 -24.34937 -24.34920
  Beta  occ. eigenvalues --  -24.34807 -24.34723 -24.34675 -24.34467 -24.34400
  Beta  occ. eigenvalues --  -24.34251 -24.34242 -18.88429 -18.87905 -18.87788
  Beta  occ. eigenvalues --  -18.86017 -18.85603 -18.85521 -18.85279 -18.85046
  Beta  occ. eigenvalues --  -18.84791 -18.84739 -18.84118 -18.83612 -17.83508
  Beta  occ. eigenvalues --  -14.27774 -14.18293 -14.11061 -14.10838 -11.58390
  Beta  occ. eigenvalues --  -11.58340 -11.58310 -10.34600 -10.34159 -10.33939
  Beta  occ. eigenvalues --  -10.21166 -10.21027 -10.15867 -10.14389 -10.14382
  Beta  occ. eigenvalues --  -10.13440 -10.13220 -10.11197 -10.11184 -10.11096
  Beta  occ. eigenvalues --  -10.10199 -10.07676 -10.07622 -10.07092 -10.06533
  Beta  occ. eigenvalues --  -10.06484 -10.06237 -10.06211 -10.06121  -7.97122
  Beta  occ. eigenvalues --   -7.96617  -7.96246  -6.16650  -6.16590  -6.16460
  Beta  occ. eigenvalues --   -6.16142  -6.16081  -6.15951  -6.15773  -6.15714
  Beta  occ. eigenvalues --   -6.15589  -5.43393  -5.43346  -5.43331  -5.43303
  Beta  occ. eigenvalues --   -5.43289  -2.36522  -1.38801  -1.38364  -1.38257
  Beta  occ. eigenvalues --   -1.28765  -1.28721  -1.28362  -1.28291  -1.28276
  Beta  occ. eigenvalues --   -1.28124  -1.26263  -1.25852  -1.24755  -1.21176
  Beta  occ. eigenvalues --   -1.20087  -1.19219  -1.17392  -1.15125  -1.13674
  Beta  occ. eigenvalues --   -1.13026  -1.08276  -1.07812  -1.07212  -1.06555
  Beta  occ. eigenvalues --   -1.05975  -1.05494  -0.96519  -0.94041  -0.93562
  Beta  occ. eigenvalues --   -0.90598  -0.90214  -0.83932  -0.82557  -0.82262
  Beta  occ. eigenvalues --   -0.81145  -0.80878  -0.80774  -0.80415  -0.78688
  Beta  occ. eigenvalues --   -0.76608  -0.76060  -0.73261  -0.73173  -0.72681
  Beta  occ. eigenvalues --   -0.72530  -0.71906  -0.68867  -0.68710  -0.68292
  Beta  occ. eigenvalues --   -0.68165  -0.68054  -0.68035  -0.67381  -0.65797
  Beta  occ. eigenvalues --   -0.64562  -0.64201  -0.63868  -0.63454  -0.63376
  Beta  occ. eigenvalues --   -0.63221  -0.63163  -0.63106  -0.63057  -0.63040
  Beta  occ. eigenvalues --   -0.62975  -0.62601  -0.62243  -0.60906  -0.60160
  Beta  occ. eigenvalues --   -0.59168  -0.59069  -0.58179  -0.57980  -0.57426
  Beta  occ. eigenvalues --   -0.57016  -0.56847  -0.56574  -0.56483  -0.56345
  Beta  occ. eigenvalues --   -0.56105  -0.55907  -0.55495  -0.55293  -0.55223
  Beta  occ. eigenvalues --   -0.54980  -0.54660  -0.54467  -0.54255  -0.54046
  Beta  occ. eigenvalues --   -0.53810  -0.53629  -0.53324  -0.52826  -0.52604
  Beta  occ. eigenvalues --   -0.52406  -0.52189  -0.52010  -0.51806  -0.51597
  Beta  occ. eigenvalues --   -0.51238  -0.51004  -0.50170  -0.49883  -0.49553
  Beta  occ. eigenvalues --   -0.49435  -0.48536  -0.48130  -0.47896  -0.47450
  Beta  occ. eigenvalues --   -0.46856  -0.46413  -0.46157  -0.45849  -0.45777
  Beta  occ. eigenvalues --   -0.45402  -0.44757  -0.44383  -0.43907  -0.43667
  Beta  occ. eigenvalues --   -0.43430  -0.43094  -0.42758  -0.42645  -0.42207
  Beta  occ. eigenvalues --   -0.41768  -0.41211  -0.40867  -0.40740  -0.40420
  Beta  occ. eigenvalues --   -0.40311  -0.40235  -0.40092  -0.39831  -0.39695
  Beta  occ. eigenvalues --   -0.39143  -0.38938  -0.38694  -0.38593  -0.38512
  Beta  occ. eigenvalues --   -0.38250  -0.37671  -0.37481  -0.37348  -0.37231
  Beta  occ. eigenvalues --   -0.37088  -0.36520  -0.36456  -0.33924  -0.29839
  Beta  occ. eigenvalues --   -0.29202  -0.25208
  Beta virt. eigenvalues --   -0.08474  -0.07295  -0.04776  -0.04040  -0.00365
  Beta virt. eigenvalues --    0.00549   0.01018   0.03322   0.04678   0.05572
  Beta virt. eigenvalues --    0.05839   0.05912   0.06220   0.07946   0.08088

 Mulliken charges and spin densities:
               1          2
     1  C    0.005534   0.000000
     2  C    0.014424   0.000000
     3  C    0.001816   0.000000
     4  C    0.012877   0.000000
     5  C    0.007854   0.000000
     6  C   -0.029821   0.000000
     7  C   -0.025460   0.000000
     8  C    0.126939   0.000000
     9  C    0.074240   0.000000
    10  H   -0.012018   0.000000
    11  H    0.011178   0.000000
    12  H    0.016556   0.000000
    13  H    0.015434   0.000000
    14  H    0.024247   0.000000
    15  O   -0.230830   0.000000
    16  O   -0.227662   0.000000
    17  O   -0.457694   0.000000
    18  O   -0.450491   0.000000
    19  O   -0.445149   0.000000
    20  S    0.862322   0.000000
    21  S    0.848677   0.000000
    22  S    0.843210   0.000000
    23  O   -0.456133   0.000000
    24  O   -0.395586   0.000000
    25  O   -0.454534   0.000000
    26  O   -0.393416   0.000000
    27  O   -0.446802   0.000000
    28  O   -0.398340   0.000000
    29  C    0.435291   0.000000
    30  C    0.429478   0.000000
    31  C    0.433522   0.000000
    32  F   -0.118785   0.000000
    33  F   -0.106467   0.000000
    34  F   -0.113674   0.000000
    35  F   -0.110387   0.000000
    36  F   -0.118927   0.000000
    37  F   -0.117369   0.000000
    38  F   -0.116230   0.000000
    39  F   -0.119983   0.000000
    40  F   -0.115704   0.000000
    41  C    0.159092   0.000000
    42  H    0.034675   0.000000
    43  C   -0.294643   0.000000
    44  C   -0.076568   0.000000
    45  C   -0.152858   0.000000
    46  C    0.053641   0.000000
    47  C    0.042897   0.000000
    48  C    0.077060   0.000000
    49  H    0.075249   0.000000
    50  H    0.054088   0.000000
    51  H    0.028654   0.000000
    52  N    0.025970   0.000000
    53  N    0.055019   0.000000
    54  N   -0.007788   0.000000
    55  N   -0.057556   0.000000
    56  C    0.124272   0.000000
    57  H    0.084757   0.000000
    58  Lu   0.612297   0.000000
    59  O   -0.236093   0.000000
    60  C    0.155523   0.000000
    61  H    0.070914   0.000000
    62  H    0.091496   0.000000
    63  H    0.043197   0.000000
    64  C    0.095432   0.000000
    65  H    0.066665   0.000000
    66  H    0.097676   0.000000
    67  H    0.074796   0.000000
 Sum of Mulliken charges =  -0.00000   0.00000

 Dipole moment (field-independent basis, Debye):
    X=              9.2461    Y=             11.6119    Z=             -0.1143  Tot=             14.8438
 Quadrupole moment (field-independent basis, Debye-Ang):
   XX=           -380.6642   YY=           -305.1875   ZZ=           -331.8187
   XY=             -7.9844   XZ=              9.4483   YZ=              3.7537

 Normal termination of Gaussian 16 at Fri May  2 23:20:56 2025.
