 Gaussian 16, Revision A.03,
 Gaussian 16:  ES64L-G16RevA.03 25-Dec-2016

 ----------------------------------------------------------------------
 # irc=(maxpoints=100,recorrect=never,calcfc,maxcycles=500,nogradstop)
 UMN15/genecp scrf=(smd,solvent=DiChloroEthane)
 ----------------------------------------------------------------------

 -------------------------------------------------------------
 IRC for Going from opening the ring, where we are opening 7-8
 -------------------------------------------------------------
 Symbolic Z-matrix:
 Charge =  0 Multiplicity = 2

 SCF Done:  E(UMN15) =  -4881.64075884     A.U. after   34 cycles
 SCF Done:  E(UMN15) =  -4881.64117768     A.U. after   22 cycles
 SCF Done:  E(UMN15) =  -4881.64210363     A.U. after   20 cycles
 SCF Done:  E(UMN15) =  -4881.64319687     A.U. after   18 cycles
 SCF Done:  E(UMN15) =  -4881.64425253     A.U. after   18 cycles
 SCF Done:  E(UMN15) =  -4881.64522348     A.U. after   18 cycles
 SCF Done:  E(UMN15) =  -4881.64611495     A.U. after   18 cycles
 SCF Done:  E(UMN15) =  -4881.64693513     A.U. after   16 cycles
 SCF Done:  E(UMN15) =  -4881.64767828     A.U. after   16 cycles
 SCF Done:  E(UMN15) =  -4881.64833897     A.U. after   15 cycles
 SCF Done:  E(UMN15) =  -4881.65319671     A.U. after   23 cycles
 SCF Done:  E(UMN15) =  -4881.65332772     A.U. after   24 cycles
 SCF Done:  E(UMN15) =  -4881.65370069     A.U. after   22 cycles
 SCF Done:  E(UMN15) =  -4881.65386346     A.U. after   22 cycles
 SCF Done:  E(UMN15) =  -4881.65396380     A.U. after   19 cycles
 SCF Done:  E(UMN15) =  -4881.65404004     A.U. after   23 cycles
 SCF Done:  E(UMN15) =  -4881.65409079     A.U. after   24 cycles
 SCF Done:  E(UMN15) =  -4881.65412779     A.U. after   22 cycles
 SCF Done:  E(UMN15) =  -4881.65415577     A.U. after   23 cycles
 SCF Done:  E(UMN15) =  -4881.65409412     A.U. after   24 cycles

                          Input orientation:
 ---------------------------------------------------------------------
 Center     Atomic      Atomic             Coordinates (Angstroms)
 Number     Number       Type             X           Y           Z
 ---------------------------------------------------------------------
      1          6           0       -4.349355   -0.768482   -0.819458
      2          6           0       -5.122778   -0.039197   -1.776207
      3          6           0       -6.036212    0.879445   -1.325123
      4          6           0       -6.201029    1.083920    0.076529
      5          6           0       -5.459924    0.337916    1.031678
      6          6           0       -4.557278   -0.593850    0.590481
      7          6           0       -3.364493   -1.773994   -1.214367
      8          6           0       -2.029645   -1.445728   -1.874334
      9          8           0       -3.097968   -2.014428   -2.559555
     10          6           0       -0.920779   -2.374484   -1.427989
     11          6           0       -1.629877   -0.033549   -2.239576
     12          1           0       -4.973448   -0.235137   -2.838060
     13          1           0       -6.646207    1.453109   -2.024187
     14          1           0       -6.927478    1.822498    0.422491
     15          1           0       -5.619184    0.505697    2.097582
     16          1           0       -3.982990   -1.214356    1.278899
     17          1           0       -3.294744   -2.636445   -0.537470
     18          8           0       -0.534990    0.435500   -2.004186
     19          8           0        0.129584   -1.982438   -0.961738
     20         70           0        0.900214    0.217634    0.002546
     21          8           0       -1.255260   -3.633391   -1.532890
     22          8           0       -2.584090    0.617314   -2.851696
     23          6           0       -0.342226   -4.571331   -0.943554
     24          6           0       -2.311676    1.986380   -3.193865
     25          1           0       -0.800557   -5.558559   -1.056911
     26          1           0       -0.205815   -4.321966    0.117934
     27          1           0        0.624527   -4.531651   -1.462006
     28          1           0       -3.267245    2.417906   -3.509305
     29          1           0       -1.585069    2.021025   -4.016237
     30          1           0       -1.903026    2.516445   -2.323801
     31          8           0       -0.387810    2.432624    0.145430
     32          8           0        0.337268   -1.491595    1.881885
     33          8           0        2.706530   -0.587200   -1.553532
     34         16           0        3.763212   -0.700856   -0.522315
     35         16           0        0.621997    3.222521   -0.598100
     36         16           0       -1.125444   -1.380722    1.735164
     37          8           0        3.238078   -0.223099    0.782330
     38          8           0        5.097927   -0.274829   -0.886969
     39          8           0        1.755650    2.348079   -0.984792
     40          8           0        0.122472    4.142741   -1.601560
     41          8           0       -1.481800   -0.295544    0.785477
     42          8           0       -1.876526   -2.619045    1.550456
     43          6           0       -1.668606   -0.709229    3.356975
     44          6           0        1.358511    4.281255    0.708627
     45          6           0        3.900956   -2.514726   -0.266638
     46          9           0       -2.981701   -0.512699    3.351795
     47          9           0       -1.061745    0.446715    3.572000
     48          9           0       -1.362105   -1.553818    4.324405
     49          9           0        1.844687    3.512565    1.677030
     50          9           0        0.435360    5.081739    1.220434
     51          9           0        2.339342    5.015586    0.209376
     52          9           0        2.734773   -3.008886    0.126726
     53          9           0        4.812225   -2.776249    0.658913
     54          9           0        4.255902   -3.105353   -1.399020
 ---------------------------------------------------------------------

 Alpha  occ. eigenvalues --  -88.04744 -88.03248 -88.03010 -24.33910 -24.33622
 Alpha  occ. eigenvalues --  -24.33545 -24.32705 -24.32548 -24.32507 -24.32353
 Alpha  occ. eigenvalues --  -24.32291 -24.32255 -18.90126 -18.90048 -18.89495
 Alpha  occ. eigenvalues --  -18.85292 -18.84998 -18.82647 -18.82481 -18.82420
 Alpha  occ. eigenvalues --  -18.81148 -18.81120 -18.81027 -18.80799 -18.80664
 Alpha  occ. eigenvalues --  -18.80212 -16.28744 -10.92167 -10.92124 -10.91961
 Alpha  occ. eigenvalues --  -10.32604 -10.31249 -10.30954 -10.23686 -10.23200
 Alpha  occ. eigenvalues --  -10.18848 -10.17673 -10.15933 -10.14293 -10.11963
 Alpha  occ. eigenvalues --  -10.11803 -10.11570 -10.11296 -10.11294 -10.10947
 Alpha  occ. eigenvalues --   -7.94474  -7.92999  -7.92757  -6.13970  -6.13941
 Alpha  occ. eigenvalues --   -6.13895  -6.12489  -6.12472  -6.12420  -6.12257
 Alpha  occ. eigenvalues --   -6.12229  -6.12176  -5.00463  -5.00424  -5.00309
 Alpha  occ. eigenvalues --   -5.00261  -5.00243  -1.95715  -1.37305  -1.36140
 Alpha  occ. eigenvalues --   -1.35863  -1.27341  -1.27270  -1.26156  -1.26139
 Alpha  occ. eigenvalues --   -1.25863  -1.25834  -1.21323  -1.18826  -1.18378
 Alpha  occ. eigenvalues --   -1.17610  -1.17347  -1.17122  -1.09612  -1.08417
 Alpha  occ. eigenvalues --   -1.05496  -1.04724  -1.04222  -1.03953  -1.02924
 Alpha  occ. eigenvalues --   -1.02695  -1.00334  -1.00111  -0.99752  -0.96357
 Alpha  occ. eigenvalues --   -0.86944  -0.84367  -0.83895  -0.80798  -0.79328
 Alpha  occ. eigenvalues --   -0.78059  -0.77745  -0.76319  -0.75045  -0.71491
 Alpha  occ. eigenvalues --   -0.70236  -0.70098  -0.69922  -0.68324  -0.67350
 Alpha  occ. eigenvalues --   -0.67210  -0.66179  -0.66131  -0.65881  -0.65862
 Alpha  occ. eigenvalues --   -0.65812  -0.62961  -0.62478  -0.61826  -0.60699
 Alpha  occ. eigenvalues --   -0.59386  -0.59169  -0.58919  -0.57818  -0.57086
 Alpha  occ. eigenvalues --   -0.56633  -0.56373  -0.56184  -0.55613  -0.55425
 Alpha  occ. eigenvalues --   -0.54709  -0.54411  -0.54286  -0.54107  -0.53989
 Alpha  occ. eigenvalues --   -0.53658  -0.53235  -0.52756  -0.52463  -0.52301
 Alpha  occ. eigenvalues --   -0.52134  -0.51761  -0.51650  -0.51550  -0.51516
 Alpha  occ. eigenvalues --   -0.51429  -0.51194  -0.50970  -0.50719  -0.50125
 Alpha  occ. eigenvalues --   -0.49940  -0.49845  -0.49687  -0.49446  -0.48847
 Alpha  occ. eigenvalues --   -0.48652  -0.47784  -0.47662  -0.47472  -0.47319
 Alpha  occ. eigenvalues --   -0.45796  -0.44883  -0.43725  -0.43375  -0.42525
 Alpha  occ. eigenvalues --   -0.42223  -0.41837  -0.41512  -0.41155  -0.41005
 Alpha  occ. eigenvalues --   -0.40486  -0.40154  -0.39651  -0.39463  -0.38814
 Alpha  occ. eigenvalues --   -0.38277  -0.38079  -0.37880  -0.37130  -0.36791
 Alpha  occ. eigenvalues --   -0.36718  -0.36425  -0.35860  -0.35484  -0.34832
 Alpha  occ. eigenvalues --   -0.34734  -0.34433  -0.34110  -0.33865  -0.33035
 Alpha  occ. eigenvalues --   -0.32859  -0.27029  -0.26985  -0.26912  -0.26850
 Alpha  occ. eigenvalues --   -0.26813  -0.26759  -0.26619
 Alpha virt. eigenvalues --   -0.07926  -0.02846  -0.02134   0.00178   0.06495
 Alpha virt. eigenvalues --    0.08210   0.08552   0.08915   0.09867   0.09997
 Alpha virt. eigenvalues --    0.10534   0.10670   0.10797   0.11658   0.11923

  Beta  occ. eigenvalues --  -88.04744 -88.03248 -88.03010 -24.33910 -24.33622
  Beta  occ. eigenvalues --  -24.33545 -24.32705 -24.32548 -24.32507 -24.32353
  Beta  occ. eigenvalues --  -24.32291 -24.32255 -18.90081 -18.90041 -18.89494
  Beta  occ. eigenvalues --  -18.85263 -18.84974 -18.82641 -18.82480 -18.82418
  Beta  occ. eigenvalues --  -18.81148 -18.81119 -18.81027 -18.80798 -18.80664
  Beta  occ. eigenvalues --  -18.80212 -16.28721 -10.92137 -10.92094 -10.91927
  Beta  occ. eigenvalues --  -10.32604 -10.31249 -10.30954 -10.23697 -10.23207
  Beta  occ. eigenvalues --  -10.18745 -10.17698 -10.15692 -10.14046 -10.11931
  Beta  occ. eigenvalues --  -10.11796 -10.11570 -10.11300 -10.11294 -10.10974
  Beta  occ. eigenvalues --   -7.94474  -7.92999  -7.92757  -6.13970  -6.13941
  Beta  occ. eigenvalues --   -6.13895  -6.12489  -6.12472  -6.12420  -6.12257
  Beta  occ. eigenvalues --   -6.12229  -6.12176  -5.00373  -5.00353  -5.00302
  Beta  occ. eigenvalues --   -5.00223  -5.00175  -1.95699  -1.37305  -1.36140
  Beta  occ. eigenvalues --   -1.35863  -1.27341  -1.27270  -1.26156  -1.26139
  Beta  occ. eigenvalues --   -1.25863  -1.25834  -1.21197  -1.18819  -1.18356
  Beta  occ. eigenvalues --   -1.17557  -1.17346  -1.17121  -1.09570  -1.08373
  Beta  occ. eigenvalues --   -1.05492  -1.04717  -1.04219  -1.03949  -1.02921
  Beta  occ. eigenvalues --   -1.02692  -1.00321  -1.00100  -0.99744  -0.95247
  Beta  occ. eigenvalues --   -0.85419  -0.84115  -0.83688  -0.80767  -0.79325
  Beta  occ. eigenvalues --   -0.78059  -0.77745  -0.75784  -0.74685  -0.71486
  Beta  occ. eigenvalues --   -0.70236  -0.69924  -0.69488  -0.67830  -0.67341
  Beta  occ. eigenvalues --   -0.67210  -0.66179  -0.66131  -0.65878  -0.65858
  Beta  occ. eigenvalues --   -0.65512  -0.62809  -0.62352  -0.61694  -0.60686
  Beta  occ. eigenvalues --   -0.59251  -0.59157  -0.58848  -0.57629  -0.56978
  Beta  occ. eigenvalues --   -0.56548  -0.56239  -0.56031  -0.55589  -0.55422
  Beta  occ. eigenvalues --   -0.54448  -0.54408  -0.54286  -0.54105  -0.53988
  Beta  occ. eigenvalues --   -0.53615  -0.53210  -0.52738  -0.52389  -0.52142
  Beta  occ. eigenvalues --   -0.52029  -0.51738  -0.51586  -0.51521  -0.51429
  Beta  occ. eigenvalues --   -0.51259  -0.51177  -0.50950  -0.50670  -0.50006
  Beta  occ. eigenvalues --   -0.49932  -0.49845  -0.49676  -0.49418  -0.48833
  Beta  occ. eigenvalues --   -0.47835  -0.47783  -0.47501  -0.47449  -0.45750
  Beta  occ. eigenvalues --   -0.45560  -0.44670  -0.43483  -0.42984  -0.42397
  Beta  occ. eigenvalues --   -0.42082  -0.41785  -0.41492  -0.41140  -0.40564
  Beta  occ. eigenvalues --   -0.40159  -0.39811  -0.39616  -0.38847  -0.38787
  Beta  occ. eigenvalues --   -0.38217  -0.37921  -0.37835  -0.37118  -0.36760
  Beta  occ. eigenvalues --   -0.36688  -0.36414  -0.35824  -0.35195  -0.34767
  Beta  occ. eigenvalues --   -0.34644  -0.34387  -0.34015  -0.33035  -0.32856
  Beta  occ. eigenvalues --   -0.26950  -0.26877  -0.26822  -0.26749  -0.26674
  Beta  occ. eigenvalues --   -0.26620  -0.26319
  Beta virt. eigenvalues --   -0.21438  -0.05178  -0.01753  -0.01117   0.00532
  Beta virt. eigenvalues --    0.06500   0.08211   0.08588   0.08907   0.09831
  Beta virt. eigenvalues --    0.10287   0.10660   0.10696   0.10848   0.11914

 Mulliken charges and spin densities:
               1          2
     1  C    0.075065   0.453246
     2  C    0.103647   0.011065
     3  C    0.047103  -0.004156
     4  C    0.133161   0.462854
     5  C    0.050995  -0.045709
     6  C    0.103230   0.056372
     7  C    0.089475  -0.075979
     8  C   -0.006117   0.109779
     9  O   -0.208366   0.020980
    10  C    0.246836  -0.009344
    11  C    0.315261  -0.016899
    12  H    0.056422  -0.002033
    13  H    0.068070  -0.001229
    14  H    0.088784  -0.027453
    15  H    0.062300   0.001194
    16  H    0.003328  -0.004987
    17  H    0.113976   0.016969
    18  O   -0.194721   0.016725
    19  O   -0.185264   0.013719
    20  Yb   0.486453   0.017461
    21  O   -0.253366   0.000575
    22  O   -0.265858   0.002354
    23  C    0.165112   0.000360
    24  C    0.166501   0.000251
    25  H    0.069245  -0.000024
    26  H    0.052549   0.000107
    27  H    0.066427  -0.000011
    28  H    0.064631   0.000058
    29  H    0.077103  -0.000071
    30  H    0.040059   0.000041
    31  O   -0.470205   0.000341
    32  O   -0.445171   0.000763
    33  O   -0.465932   0.000176
    34  S    0.836722  -0.000047
    35  S    0.838279  -0.000015
    36  S    0.817125   0.000166
    37  O   -0.482152   0.000123
    38  O   -0.449102   0.000090
    39  O   -0.467781   0.000046
    40  O   -0.449557  -0.000004
    41  O   -0.471494   0.001850
    42  O   -0.447677   0.000278
    43  C    0.424108   0.000034
    44  C    0.403491   0.000028
    45  C    0.404134  -0.000002
    46  F   -0.133370  -0.000046
    47  F   -0.126542   0.000002
    48  F   -0.128235   0.000001
    49  F   -0.135862   0.000002
    50  F   -0.140191   0.000001
    51  F   -0.136109   0.000004
    52  F   -0.124620  -0.000002
    53  F   -0.139891  -0.000000
    54  F   -0.142010   0.000000
 Sum of Mulliken charges =  -0.00000   1.00000

 Dipole moment (field-independent basis, Debye):
    X=            -32.1353    Y=             -4.2358    Z=             -2.7468  Tot=             32.5295
 Quadrupole moment (field-independent basis, Debye-Ang):
   XX=           -196.0216   YY=           -276.3291   ZZ=           -265.7651
   XY=            -19.7256   XZ=             21.8132   YZ=              9.2649

  Exact polarizability:   0.000   0.000   0.000   0.000   0.000   0.000
 Approx polarizability: 480.839 -40.904 333.865  -2.867   4.611 327.916

 Normal termination of Gaussian 16 at Tue Mar  4 10:10:49 2025.
