 Gaussian 16, Revision A.03,
 Gaussian 16:  ES64L-G16RevA.03 25-Dec-2016

 ------------------------------------------------------------------
 #P MN15/gen scf=(maxcyc=500) opt scrf=(smd,solvent=DiChloroEthane)
 ------------------------------------------------------------------

 ---
 Opt
 ---
 Symbolic Z-matrix:
 Charge =  0 Multiplicity = 1

 SCF Done:  E(RMN15) =  -4781.67946918     A.U. after   15 cycles
 SCF Done:  E(RMN15) =  -4781.70722100     A.U. after   15 cycles
 SCF Done:  E(RMN15) =  -4781.71324923     A.U. after   12 cycles
 SCF Done:  E(RMN15) =  -4781.71442466     A.U. after   13 cycles
 SCF Done:  E(RMN15) =  -4781.71521707     A.U. after   12 cycles
 SCF Done:  E(RMN15) =  -4781.71530970     A.U. after   12 cycles
 SCF Done:  E(RMN15) =  -4781.71620461     A.U. after   12 cycles
 SCF Done:  E(RMN15) =  -4781.71633276     A.U. after   12 cycles
 SCF Done:  E(RMN15) =  -4781.71656670     A.U. after   11 cycles
 SCF Done:  E(RMN15) =  -4781.71680238     A.U. after   12 cycles
 SCF Done:  E(RMN15) =  -4781.71780337     A.U. after    7 cycles
 SCF Done:  E(RMN15) =  -4781.71780404     A.U. after    7 cycles
 SCF Done:  E(RMN15) =  -4781.71780494     A.U. after    8 cycles
 SCF Done:  E(RMN15) =  -4781.71780546     A.U. after    8 cycles
 SCF Done:  E(RMN15) =  -4781.71780552     A.U. after    7 cycles
 SCF Done:  E(RMN15) =  -4781.71780539     A.U. after    7 cycles
 SCF Done:  E(RMN15) =  -4781.71780521     A.U. after    7 cycles
 SCF Done:  E(RMN15) =  -4781.71780514     A.U. after    7 cycles
 SCF Done:  E(RMN15) =  -4781.71780550     A.U. after    7 cycles
 SCF Done:  E(RMN15) =  -4781.71780542     A.U. after    7 cycles
 Optimization completed.
    -- Stationary point found.

                         Standard orientation:
 ---------------------------------------------------------------------
 Center     Atomic      Atomic             Coordinates (Angstroms)
 Number     Number       Type             X           Y           Z
 ---------------------------------------------------------------------
      1          6           0        5.516226   -0.813757    0.195496
      2          6           0        5.712082   -1.510183    1.397706
      3          6           0        6.817376   -2.349033    1.556802
      4          6           0        7.739278   -2.504966    0.519766
      5          6           0        7.553993   -1.814694   -0.680366
      6          6           0        6.451364   -0.974861   -0.838084
      7          6           0        1.773976    0.498051    0.454649
      8          6           0        1.133323    0.505263   -0.934881
      9          6           0        0.820905    0.153945    1.599153
     10          1           0        5.008725   -1.405626    2.227401
     11          1           0        6.955758   -2.884159    2.498774
     12          1           0        8.600604   -3.164610    0.646380
     13          1           0        8.269080   -1.930503   -1.497728
     14          1           0        6.307531   -0.431990   -1.776936
     15          8           0       -0.397131    0.334177    1.502154
     16          8           0       -0.076545    0.361781   -1.111749
     17          8           0       -3.440668    0.417297    1.371812
     18          8           0       -3.062316    0.574808   -1.543338
     19          8           0       -0.169131   -2.000389    0.163238
     20         16           0       -0.885776   -2.797727   -0.870266
     21         16           0       -3.699012   -0.926066    1.985635
     22         16           0       -2.904292    2.039996   -1.236891
     23          8           0       -2.007125   -1.912631   -1.335654
     24          8           0       -1.196178   -4.173926   -0.586321
     25          8           0       -2.595402   -1.772632    1.434044
     26          8           0       -3.985342   -0.992867    3.391101
     27          8           0       -1.931969    2.069509   -0.107850
     28          8           0       -2.679427    2.924008   -2.350197
     29          6           0       -4.551056    2.544536   -0.503324
     30          6           0       -5.186318   -1.515232    1.074311
     31          6           0        0.279306   -2.832397   -2.314798
     32          9           0       -4.357738    3.073954    0.685960
     33          9           0       -5.345984    1.497627   -0.408718
     34          9           0       -5.099993    3.439888   -1.300987
     35          9           0       -4.918747   -1.461167   -0.219503
     36          9           0       -6.210173   -0.734743    1.353317
     37          9           0       -5.456790   -2.755979    1.423697
     38          9           0        1.520436   -2.896298   -1.855420
     39          9           0        0.142731   -1.739947   -3.041919
     40          9           0        0.026753   -3.891722   -3.053878
     41          6           0        4.353916    0.134666   -0.024942
     42          1           0        4.315284    0.347121   -1.102406
     43          6           0        4.588234    1.545907    0.607182
     44          6           0        5.846664    2.118545    0.088467
     45          6           0        4.704183    1.438390    2.083979
     46          6           0        1.124286    2.996653    0.419473
     47          6           0        2.679798    3.987317   -1.149242
     48          6           0        1.359299    3.907168   -0.539218
     49          1           0        0.146868    2.906960    0.898310
     50          1           0        2.885209    4.681073   -1.967439
     51          1           0        0.577408    4.595478   -0.864014
     52          7           0        6.873357    2.487705   -0.295533
     53          7           0        4.734590    1.320609    3.235183
     54          7           0        3.464986    2.412955    0.286841
     55          7           0        3.663048    3.258682   -0.748558
     56          6           0        2.183015    2.017359    0.832474
     57          1           0        2.274820    2.010528    1.934223
     58         21           0       -1.791332   -0.221895    0.022179
     59          6           0        3.019774   -0.431103    0.478790
     60          1           0        2.787897   -1.349904   -0.081829
     61          1           0        3.176986   -0.746676    1.516728
     62          6           0        1.351319   -0.322104    2.904653
     63          1           0        1.528159   -1.407424    2.798925
     64          1           0        2.304789    0.142877    3.188695
     65          1           0        0.587441   -0.168854    3.675322
     66          6           0        1.990617    0.658265   -2.141717
     67          1           0        2.752096    1.438917   -2.028166
     68          1           0        2.516322   -0.299209   -2.303197
     69          1           0        1.352457    0.862869   -3.008810
 ---------------------------------------------------------------------

 The electronic state is 1-A.
 Alpha  occ. eigenvalues -- -160.21944 -88.06916 -88.06388 -88.06131 -24.34672
 Alpha  occ. eigenvalues --  -24.34653 -24.34541 -24.34484 -24.34469 -24.34338
 Alpha  occ. eigenvalues --  -24.33909 -24.33833 -24.33798 -18.87994 -18.87646
 Alpha  occ. eigenvalues --  -18.85560 -18.85487 -18.84978 -18.84960 -18.84587
 Alpha  occ. eigenvalues --  -18.84554 -18.84447 -18.83659 -18.83657 -17.20498
 Alpha  occ. eigenvalues --  -14.50633 -14.50613 -14.50584 -14.19262 -14.16233
 Alpha  occ. eigenvalues --  -14.14176 -14.13234 -10.34122 -10.33891 -10.33661
 Alpha  occ. eigenvalues --  -10.21074 -10.20939 -10.20012 -10.15243 -10.13249
 Alpha  occ. eigenvalues --  -10.12776 -10.12727 -10.10637 -10.10185 -10.09493
 Alpha  occ. eigenvalues --  -10.08773 -10.07902 -10.07719 -10.07379 -10.07333
 Alpha  occ. eigenvalues --  -10.06521 -10.06358 -10.06071 -10.06027 -10.05998
 Alpha  occ. eigenvalues --   -7.96756  -7.96169  -7.95975  -6.16276  -6.16228
 Alpha  occ. eigenvalues --   -6.16087  -6.15695  -6.15636  -6.15527  -6.15501
 Alpha  occ. eigenvalues --   -6.15440  -6.15312  -2.16789  -1.41453  -1.41315
 Alpha  occ. eigenvalues --   -1.41083  -1.38355  -1.38287  -1.37751  -1.28345
 Alpha  occ. eigenvalues --   -1.28343  -1.28252  -1.28211  -1.27711  -1.27602
 Alpha  occ. eigenvalues --   -1.21320  -1.20474  -1.20223  -1.14542  -1.12846
 Alpha  occ. eigenvalues --   -1.10112  -1.08491  -1.07474  -1.07303  -1.06122
 Alpha  occ. eigenvalues --   -1.05505  -1.05328  -0.98622  -0.96353  -0.94686
 Alpha  occ. eigenvalues --   -0.91201  -0.90721  -0.87050  -0.84719  -0.82135
 Alpha  occ. eigenvalues --   -0.80814  -0.80670  -0.80278  -0.79718  -0.78842
 Alpha  occ. eigenvalues --   -0.78549  -0.76268  -0.73658  -0.72713  -0.72476
 Alpha  occ. eigenvalues --   -0.71988  -0.71604  -0.68644  -0.68277  -0.68252
 Alpha  occ. eigenvalues --   -0.68217  -0.68124  -0.67647  -0.67625  -0.65903
 Alpha  occ. eigenvalues --   -0.65012  -0.64108  -0.63992  -0.63281  -0.62848
 Alpha  occ. eigenvalues --   -0.62520  -0.61720  -0.61489  -0.59946  -0.58733
 Alpha  occ. eigenvalues --   -0.58368  -0.58162  -0.57142  -0.56706  -0.56502
 Alpha  occ. eigenvalues --   -0.56125  -0.55998  -0.55732  -0.55530  -0.55400
 Alpha  occ. eigenvalues --   -0.55212  -0.55173  -0.54997  -0.54540  -0.54350
 Alpha  occ. eigenvalues --   -0.54229  -0.53759  -0.53593  -0.53563  -0.53155
 Alpha  occ. eigenvalues --   -0.52512  -0.52390  -0.52159  -0.52052  -0.52012
 Alpha  occ. eigenvalues --   -0.51779  -0.51549  -0.51217  -0.51095  -0.50670
 Alpha  occ. eigenvalues --   -0.50054  -0.49550  -0.49459  -0.48938  -0.48910
 Alpha  occ. eigenvalues --   -0.48577  -0.48021  -0.47695  -0.46951  -0.46562
 Alpha  occ. eigenvalues --   -0.46187  -0.46123  -0.45896  -0.45411  -0.45024
 Alpha  occ. eigenvalues --   -0.44597  -0.44495  -0.44229  -0.43906  -0.43548
 Alpha  occ. eigenvalues --   -0.43237  -0.42908  -0.42683  -0.42474  -0.42062
 Alpha  occ. eigenvalues --   -0.41838  -0.41494  -0.41462  -0.40838  -0.40715
 Alpha  occ. eigenvalues --   -0.40291  -0.40013  -0.39897  -0.39798  -0.39741
 Alpha  occ. eigenvalues --   -0.39179  -0.38909  -0.38396  -0.38169  -0.37957
 Alpha  occ. eigenvalues --   -0.37768  -0.37544  -0.37226  -0.36781  -0.36431
 Alpha  occ. eigenvalues --   -0.35782  -0.34783  -0.34004  -0.29712  -0.29660
 Alpha  occ. eigenvalues --   -0.26458
 Alpha virt. eigenvalues --   -0.06269  -0.05756  -0.03969  -0.02160  -0.01161
 Alpha virt. eigenvalues --   -0.00587   0.00359   0.00767   0.01255   0.01321
 Alpha virt. eigenvalues --    0.01612   0.03885   0.05137   0.06326   0.06946

 Mulliken charges:
               1
     1  C    0.022163
     2  C   -0.017080
     3  C   -0.000375
     4  C    0.014200
     5  C    0.004128
     6  C   -0.012555
     7  C   -0.257587
     8  C    0.080758
     9  C    0.091835
    10  H    0.005425
    11  H    0.011661
    12  H    0.015188
    13  H    0.012700
    14  H    0.004680
    15  O   -0.217893
    16  O   -0.187460
    17  O   -0.434025
    18  O   -0.440019
    19  O   -0.446477
    20  S    0.891737
    21  S    0.863127
    22  S    0.868826
    23  O   -0.443765
    24  O   -0.392694
    25  O   -0.431723
    26  O   -0.380822
    27  O   -0.431211
    28  O   -0.398109
    29  C    0.446637
    30  C    0.449516
    31  C    0.425468
    32  F   -0.114701
    33  F   -0.112782
    34  F   -0.121948
    35  F   -0.102364
    36  F   -0.116635
    37  F   -0.117026
    38  F   -0.124213
    39  F   -0.112718
    40  F   -0.115734
    41  C    0.045650
    42  H    0.032249
    43  C   -0.115876
    44  C   -0.167552
    45  C   -0.167101
    46  C    0.015107
    47  C   -0.011514
    48  C    0.022736
    49  H    0.057951
    50  H    0.051354
    51  H    0.039183
    52  N    0.142645
    53  N    0.099693
    54  N   -0.196998
    55  N   -0.010398
    56  C    0.141712
    57  H    0.077743
    58  Sc   0.294934
    59  C    0.185929
    60  H    0.055742
    61  H    0.015563
    62  C    0.133948
    63  H    0.108536
    64  H    0.052627
    65  H    0.075075
    66  C    0.116674
    67  H    0.060629
    68  H    0.089739
    69  H    0.075889
 Sum of Mulliken charges =  -0.00000

 Dipole moment (field-independent basis, Debye):
    X=             10.1982    Y=              1.5773    Z=             -0.6468  Tot=             10.3397
 Quadrupole moment (field-independent basis, Debye-Ang):
   XX=           -349.1078   YY=           -331.6710   ZZ=           -323.6316
   XY=            -30.5090   XZ=             -5.8496   YZ=             -1.2937

 Normal termination of Gaussian 16 at Mon Mar  3 22:44:53 2025.
