 Gaussian 16, Revision A.03,
 Gaussian 16:  ES64L-G16RevA.03 25-Dec-2016

 ------------------------------------------------------------------
 #P MN15/gen scf=(maxcyc=500) opt scrf=(smd,solvent=DiChloroEthane)
 ------------------------------------------------------------------

 ---
 Opt
 ---
 Symbolic Z-matrix:
 Charge =  0 Multiplicity = 1

 SCF Done:  E(RMN15) =  -4931.92154298     A.U. after   14 cycles
 SCF Done:  E(RMN15) =  -4931.91485774     A.U. after   13 cycles
 SCF Done:  E(RMN15) =  -4931.91383867     A.U. after   13 cycles
 SCF Done:  E(RMN15) =  -4931.91363742     A.U. after   13 cycles
 SCF Done:  E(RMN15) =  -4931.92154224     A.U. after    6 cycles
 SCF Done:  E(RMN15) =  -4931.92154301     A.U. after    1 cycles
 SCF Done:  E(RMN15) =  -4931.92038593     A.U. after   12 cycles
 SCF Done:  E(RMN15) =  -4931.92131805     A.U. after   12 cycles
 SCF Done:  E(RMN15) =  -4931.92158268     A.U. after    7 cycles
 SCF Done:  E(RMN15) =  -4931.92157717     A.U. after   11 cycles
 SCF Done:  E(RMN15) =  -4931.92170769     A.U. after    9 cycles
 SCF Done:  E(RMN15) =  -4931.92171069     A.U. after    9 cycles
 SCF Done:  E(RMN15) =  -4931.92170921     A.U. after    9 cycles
 SCF Done:  E(RMN15) =  -4931.92170796     A.U. after    9 cycles
 SCF Done:  E(RMN15) =  -4931.92171058     A.U. after    9 cycles
 SCF Done:  E(RMN15) =  -4931.92170904     A.U. after    9 cycles
 SCF Done:  E(RMN15) =  -4931.92170729     A.U. after    9 cycles
 SCF Done:  E(RMN15) =  -4931.92170901     A.U. after    9 cycles
 SCF Done:  E(RMN15) =  -4931.92170904     A.U. after    8 cycles
 SCF Done:  E(RMN15) =  -4931.92170904     A.U. after    6 cycles
 Optimization completed.
    -- Stationary point found.

                         Standard orientation:
 ---------------------------------------------------------------------
 Center     Atomic      Atomic             Coordinates (Angstroms)
 Number     Number       Type             X           Y           Z
 ---------------------------------------------------------------------
      1          6           0       -1.721743    0.133511    1.188409
      2          6           0       -1.389401    0.254273   -0.182251
      3          6           0       -0.673137   -0.211277    2.078141
      4          8           0        0.530200   -0.442592    1.753697
      5          8           0       -0.234375    0.259346   -0.692585
      6          8           0       -2.424835    0.321427   -1.008886
      7          8           0       -1.000965   -0.372024    3.354622
      8          6           0       -2.161025    0.431734   -2.404856
      9          6           0        0.040264   -0.704296    4.271197
     10          1           0       -3.131986    0.362699   -2.908601
     11          1           0       -1.494695   -0.375903   -2.741158
     12          1           0       -1.690235    1.397259   -2.632933
     13          1           0       -0.425474   -0.743919    5.261640
     14          1           0        0.827818    0.061590    4.253883
     15          1           0        0.481625   -1.679278    4.023178
     16          8           0        3.433006   -0.975305    0.840059
     17          8           0        2.386316   -0.316927   -1.823847
     18          8           0        0.652985    2.219518    1.086638
     19         16           0        1.261093    3.084556    0.045336
     20         16           0        4.107792    0.087997    1.647738
     21         16           0        2.029236   -1.770120   -1.818134
     22          8           0        2.056889    2.162745   -0.828751
     23          8           0        1.889753    4.317203    0.449215
     24          8           0        3.137589    1.220533    1.647536
     25          8           0        4.722002   -0.293379    2.892126
     26          8           0        1.385169   -2.025804   -0.506499
     27          8           0        1.364697   -2.289406   -2.993927
     28          6           0        3.679094   -2.646228   -1.743279
     29          6           0        5.453418    0.662919    0.533431
     30          6           0       -0.170352    3.589809   -1.046865
     31          9           0        3.689684   -3.476716   -0.719320
     32          9           0        4.658469   -1.772417   -1.619202
     33          9           0        3.846480   -3.329799   -2.861525
     34          9           0        4.920386    1.016646   -0.622688
     35          9           0        6.316875   -0.317063    0.345046
     36          9           0        6.066031    1.698087    1.075892
     37          9           0       -1.296249    3.066021   -0.586584
     38          9           0        0.031156    3.163546   -2.280567
     39          9           0       -0.275957    4.904103   -1.048735
     40          6           0       -4.448536   -0.036275    1.169092
     41          6           0       -4.555007   -1.601261    1.106642
     42          6           0       -5.851739   -2.050502    0.558413
     43          6           0       -4.502446   -2.087023    2.503849
     44          6           0       -1.239114   -3.063307    0.156164
     45          6           0       -2.720402   -2.870678   -1.714880
     46          6           0       -1.439274   -3.181265   -1.203039
     47          1           0       -0.289460   -3.297967    0.634850
     48          1           0       -2.960045   -2.984536   -2.774072
     49          1           0       -0.641553   -3.504925   -1.873945
     50          7           0       -6.893110   -2.400965    0.198786
     51          7           0       -4.480671   -2.427016    3.609018
     52          7           0       -3.454139   -2.263993    0.331588
     53          7           0       -3.694340   -2.420358   -0.954892
     54          6           0       -2.296255   -2.570887    0.927382
     55          1           0       -2.235424   -2.456058    2.011022
     56          6           0       -3.092535    0.475966    1.744438
     57          1           0       -3.208375    1.572006    1.751235
     58          1           0       -3.077061    0.185480    2.803818
     59         21           0        1.649148    0.253394    0.189085
     60          1           0       -5.142182    0.173343    2.001392
     61          6           0       -5.050371    0.770547    0.021038
     62          6           0       -5.344937    2.110609    0.322550
     63          6           0       -5.373143    0.296575   -1.255245
     64          6           0       -5.921145    2.956454   -0.623877
     65          1           0       -5.126797    2.497578    1.322321
     66          6           0       -5.962704    1.139544   -2.202735
     67          1           0       -5.153562   -0.732075   -1.540298
     68          6           0       -6.234138    2.472685   -1.896495
     69          1           0       -6.135823    3.994571   -0.360542
     70          1           0       -6.203924    0.743149   -3.191858
     71          1           0       -6.690671    3.129011   -2.640629
 ---------------------------------------------------------------------

 The electronic state is 1-A.
 Alpha  occ. eigenvalues -- -160.19800 -88.05842 -88.05240 -88.05108 -24.33878
 Alpha  occ. eigenvalues --  -24.33813 -24.33812 -24.33793 -24.33689 -24.33501
 Alpha  occ. eigenvalues --  -24.33342 -24.33323 -24.33302 -18.87519 -18.87255
 Alpha  occ. eigenvalues --  -18.84364 -18.84225 -18.83729 -18.83547 -18.83448
 Alpha  occ. eigenvalues --  -18.83367 -18.83193 -18.83080 -18.83029 -18.82889
 Alpha  occ. eigenvalues --  -18.82521 -17.18360 -14.48522 -14.48486 -14.48401
 Alpha  occ. eigenvalues --  -14.28910 -14.21099 -14.15507 -14.14713 -10.33232
 Alpha  occ. eigenvalues --  -10.32904 -10.32879 -10.23157 -10.20453 -10.20373
 Alpha  occ. eigenvalues --  -10.18319 -10.15143 -10.14619 -10.14122 -10.13062
 Alpha  occ. eigenvalues --  -10.12636 -10.11543 -10.10769 -10.10539 -10.07938
 Alpha  occ. eigenvalues --  -10.07738 -10.06014 -10.05909 -10.05896 -10.05770
 Alpha  occ. eigenvalues --  -10.05750 -10.05596  -7.95662  -7.95041  -7.94880
 Alpha  occ. eigenvalues --   -6.15174  -6.15132  -6.15013  -6.14555  -6.14511
 Alpha  occ. eigenvalues --   -6.14405  -6.14395  -6.14343  -6.14258  -2.14675
 Alpha  occ. eigenvalues --   -1.39321  -1.39133  -1.39018  -1.37596  -1.37407
 Alpha  occ. eigenvalues --   -1.37154  -1.27592  -1.27576  -1.27349  -1.27320
 Alpha  occ. eigenvalues --   -1.27111  -1.27020  -1.20189  -1.19388  -1.19086
 Alpha  occ. eigenvalues --   -1.17665  -1.16045  -1.15409  -1.07290  -1.06408
 Alpha  occ. eigenvalues --   -1.06109  -1.05835  -1.05058  -1.04727  -1.04475
 Alpha  occ. eigenvalues --   -1.04221  -1.00837  -0.97712  -0.96785  -0.93057
 Alpha  occ. eigenvalues --   -0.90996  -0.88587  -0.86108  -0.81828  -0.79938
 Alpha  occ. eigenvalues --   -0.79120  -0.79025  -0.78849  -0.78587  -0.78117
 Alpha  occ. eigenvalues --   -0.76604  -0.75501  -0.73706  -0.71907  -0.71474
 Alpha  occ. eigenvalues --   -0.71316  -0.69005  -0.67909  -0.67568  -0.67488
 Alpha  occ. eigenvalues --   -0.67422  -0.67275  -0.67089  -0.67035  -0.65643
 Alpha  occ. eigenvalues --   -0.64910  -0.63550  -0.63015  -0.62710  -0.62000
 Alpha  occ. eigenvalues --   -0.61600  -0.61300  -0.61024  -0.59739  -0.59044
 Alpha  occ. eigenvalues --   -0.58178  -0.57140  -0.56967  -0.56507  -0.56398
 Alpha  occ. eigenvalues --   -0.56003  -0.55863  -0.55697  -0.55549  -0.55425
 Alpha  occ. eigenvalues --   -0.54960  -0.54831  -0.54704  -0.54622  -0.54129
 Alpha  occ. eigenvalues --   -0.54067  -0.53702  -0.53571  -0.53337  -0.53043
 Alpha  occ. eigenvalues --   -0.52646  -0.52565  -0.52314  -0.51670  -0.51322
 Alpha  occ. eigenvalues --   -0.51271  -0.51118  -0.51052  -0.50953  -0.50622
 Alpha  occ. eigenvalues --   -0.50110  -0.49878  -0.48875  -0.48802  -0.48410
 Alpha  occ. eigenvalues --   -0.48300  -0.47966  -0.47669  -0.47303  -0.46737
 Alpha  occ. eigenvalues --   -0.46637  -0.46203  -0.45949  -0.45754  -0.45271
 Alpha  occ. eigenvalues --   -0.45064  -0.44577  -0.44170  -0.44061  -0.43646
 Alpha  occ. eigenvalues --   -0.43268  -0.42643  -0.42472  -0.42205  -0.41738
 Alpha  occ. eigenvalues --   -0.41572  -0.41345  -0.40920  -0.40557  -0.40329
 Alpha  occ. eigenvalues --   -0.40109  -0.39717  -0.39624  -0.39359  -0.39153
 Alpha  occ. eigenvalues --   -0.38938  -0.38806  -0.38575  -0.38216  -0.38126
 Alpha  occ. eigenvalues --   -0.37805  -0.37528  -0.37296  -0.37049  -0.36971
 Alpha  occ. eigenvalues --   -0.36461  -0.36127  -0.35902  -0.35458  -0.35251
 Alpha  occ. eigenvalues --   -0.34890  -0.29281  -0.28643  -0.26057
 Alpha virt. eigenvalues --   -0.10172  -0.05834  -0.02680  -0.01662  -0.00310
 Alpha virt. eigenvalues --   -0.00220   0.00552   0.01476   0.01571   0.01706
 Alpha virt. eigenvalues --    0.03228   0.04412   0.05557   0.06088   0.06907

 Mulliken charges:
               1
     1  C   -0.184213
     2  C    0.210005
     3  C    0.247034
     4  O   -0.322736
     5  O   -0.294640
     6  O   -0.271499
     7  O   -0.279636
     8  C    0.178751
     9  C    0.162230
    10  H    0.045602
    11  H    0.041673
    12  H    0.047015
    13  H    0.058440
    14  H    0.063151
    15  H    0.053565
    16  O   -0.438077
    17  O   -0.437142
    18  O   -0.424967
    19  S    0.886172
    20  S    0.868176
    21  S    0.861828
    22  O   -0.443285
    23  O   -0.406509
    24  O   -0.425591
    25  O   -0.397848
    26  O   -0.440827
    27  O   -0.420276
    28  C    0.436155
    29  C    0.440494
    30  C    0.422613
    31  F   -0.122036
    32  F   -0.115668
    33  F   -0.128732
    34  F   -0.104275
    35  F   -0.123377
    36  F   -0.123789
    37  F   -0.122366
    38  F   -0.116826
    39  F   -0.122013
    40  C    0.062728
    41  C   -0.071575
    42  C   -0.178363
    43  C   -0.203705
    44  C    0.082692
    45  C    0.069024
    46  C    0.077082
    47  H    0.089897
    48  H    0.092642
    49  H    0.067822
    50  N    0.151531
    51  N    0.147464
    52  N   -0.097430
    53  N    0.013975
    54  C    0.210772
    55  H    0.100328
    56  C    0.199086
    57  H    0.043380
    58  H    0.023095
    59  Sc   0.258686
    60  H    0.083652
    61  C    0.069354
    62  C   -0.054769
    63  C   -0.028397
    64  C    0.006709
    65  H    0.012149
    66  C    0.002508
    67  H   -0.015759
    68  C    0.004225
    69  H    0.009453
    70  H    0.005318
    71  H    0.009852
 Sum of Mulliken charges =  -0.00000

 Dipole moment (field-independent basis, Debye):
    X=            -15.5580    Y=             -9.1479    Z=             -1.2169  Tot=             18.0891
 Quadrupole moment (field-independent basis, Debye-Ang):
   XX=           -361.2435   YY=           -323.2285   ZZ=           -322.7571
   XY=            -14.1642   XZ=              2.6088   YZ=             -0.4188

 Normal termination of Gaussian 16 at Tue Feb 18 23:17:32 2025.
