 Gaussian 16, Revision A.03,
 Gaussian 16:  ES64L-G16RevA.03 25-Dec-2016

 ----------------------------------------------------------------------
 #P UMN15/genecp scf=(maxcyc=500) irc=(maxpoints=100,recorrect=never,ca
 lcfc,maxcycles=500,nogradstop) scrf=(smd,solvent=DiChloroEthane)
 ----------------------------------------------------------------------

 ---
 Opt
 ---
 Symbolic Z-matrix:
 Charge =  0 Multiplicity = 1

 SCF Done:  E(UMN15) =  -5446.20592986     A.U. after   19 cycles
 SCF Done:  E(UMN15) =  -5446.20599581     A.U. after   11 cycles
 SCF Done:  E(UMN15) =  -5446.20615329     A.U. after   11 cycles
 SCF Done:  E(UMN15) =  -5446.20635872     A.U. after   11 cycles
 SCF Done:  E(UMN15) =  -5446.20657861     A.U. after   11 cycles
 SCF Done:  E(UMN15) =  -5446.20679258     A.U. after   11 cycles
 SCF Done:  E(UMN15) =  -5446.20698503     A.U. after   11 cycles
 SCF Done:  E(UMN15) =  -5446.20715114     A.U. after   11 cycles
 SCF Done:  E(UMN15) =  -5446.20728224     A.U. after   11 cycles
 SCF Done:  E(UMN15) =  -5446.20733360     A.U. after   10 cycles
 SCF Done:  E(UMN15) =  -5446.22173913     A.U. after   10 cycles
 SCF Done:  E(UMN15) =  -5446.22299887     A.U. after   10 cycles
 SCF Done:  E(UMN15) =  -5446.22390283     A.U. after   10 cycles
 SCF Done:  E(UMN15) =  -5446.22433364     A.U. after   10 cycles
 SCF Done:  E(UMN15) =  -5446.22468882     A.U. after   10 cycles
 SCF Done:  E(UMN15) =  -5446.22532081     A.U. after   11 cycles
 SCF Done:  E(UMN15) =  -5446.22505671     A.U. after   11 cycles
 SCF Done:  E(UMN15) =  -5446.22512961     A.U. after   11 cycles
 SCF Done:  E(UMN15) =  -5446.22540078     A.U. after   11 cycles
 SCF Done:  E(UMN15) =  -5446.22547265     A.U. after   10 cycles

                          Input orientation:
 ---------------------------------------------------------------------
 Center     Atomic      Atomic             Coordinates (Angstroms)
 Number     Number       Type             X           Y           Z
 ---------------------------------------------------------------------
      1          6           0       -5.801926    0.426232   -0.201865
      2          6           0       -6.685841    0.226825   -1.269737
      3          6           0       -7.953766    0.809329   -1.244461
      4          6           0       -8.337170    1.601533   -0.159247
      5          6           0       -7.446897    1.821839    0.895446
      6          6           0       -6.180200    1.236455    0.877087
      7          6           0       -2.182804    0.337242    0.303618
      8          6           0       -1.588560    0.800705   -0.897695
      9          6           0       -1.424291   -0.122986    1.399584
     10          1           0       -6.378941   -0.390201   -2.118681
     11          1           0       -8.641238    0.649227   -2.077784
     12          1           0       -9.330417    2.056502   -0.139971
     13          1           0       -7.739295    2.453594    1.737027
     14          1           0       -5.476725    1.406511    1.694797
     15          8           0       -0.177662   -0.317414    1.422513
     16          8           0       -0.352247    0.832240   -1.138847
     17          8           0       -2.443481    1.215152   -1.820966
     18          8           0       -2.143634   -0.396747    2.486170
     19          6           0       -1.914031    1.629115   -3.078976
     20          6           0       -1.456152   -0.787789    3.669929
     21          1           0       -2.777079    1.799461   -3.732978
     22          1           0       -1.266025    0.848013   -3.502375
     23          1           0       -1.337108    2.557523   -2.972107
     24          1           0       -2.217633   -0.850899    4.456068
     25          1           0       -0.696109   -0.042766    3.942137
     26          1           0       -0.964042   -1.763809    3.541748
     27          8           0        2.791558   -1.354872    0.964565
     28          8           0        2.456199   -0.185834   -1.900944
     29          8           0        0.572643    2.375017    1.104806
     30         16           0        1.435193    3.283141    0.301690
     31         16           0        3.530555   -0.514426    1.956895
     32         16           0        1.791655   -1.503028   -2.150737
     33          8           0        2.250349    2.395817   -0.589455
     34          8           0        2.131147    4.342435    0.986478
     35          8           0        2.859404    0.818741    1.920929
     36          8           0        3.830140   -1.093078    3.239595
     37          8           0        0.858809   -1.720000   -1.010573
     38          8           0        1.280243   -1.743275   -3.478351
     39          6           0        3.147825   -2.761555   -1.899664
     40          6           0        5.131707   -0.197610    1.111722
     41          6           0        0.258682    4.138662   -0.873331
     42          9           0        2.717727   -3.704439   -1.080207
     43          9           0        4.222501   -2.190507   -1.394437
     44          9           0        3.448092   -3.300446   -3.066427
     45          9           0        4.874634    0.364036   -0.060287
     46          9           0        5.772416   -1.335549    0.928084
     47          9           0        5.869191    0.616700    1.840747
     48          9           0       -0.974437    3.701475   -0.680563
     49          9           0        0.616871    3.894849   -2.120860
     50          9           0        0.296880    5.437652   -0.651585
     51          6           0       -4.457126   -0.254332   -0.194021
     52          1           0       -4.124867   -0.491258   -1.217538
     53          6           0       -4.623006   -1.701048    0.523131
     54          6           0       -5.662246   -2.458512   -0.185965
     55          6           0       -4.994900   -1.482544    1.924280
     56          6           0       -1.490415   -3.638747    1.275096
     57          6           0       -1.788083   -3.181861   -1.056786
     58          6           0       -0.997632   -3.712233   -0.011507
     59          1           0       -0.961262   -4.053217    2.133692
     60          1           0       -1.470688   -3.237940   -2.099902
     61          1           0       -0.032131   -4.165575   -0.236290
     62          7           0       -6.471949   -3.022687   -0.787689
     63          7           0       -5.303178   -1.284071    3.021387
     64          7           0       -3.348309   -2.473802    0.413662
     65          7           0       -2.936108   -2.582995   -0.837333
     66          6           0       -2.717235   -2.997271    1.468734
     67          1           0       -3.187120   -2.893762    2.448057
     68         71           0        1.417793    0.357879    0.098952
     69          8           0       -3.544776    0.514952    0.507150
 ---------------------------------------------------------------------

 Alpha  occ. eigenvalues --  -88.06000 -88.05530 -88.05176 -24.34196 -24.33994
 Alpha  occ. eigenvalues --  -24.33956 -24.33753 -24.33709 -24.33661 -24.33632
 Alpha  occ. eigenvalues --  -24.33587 -24.33462 -18.87425 -18.87150 -18.86335
 Alpha  occ. eigenvalues --  -18.84468 -18.84378 -18.83998 -18.83660 -18.83622
 Alpha  occ. eigenvalues --  -18.83506 -18.83259 -18.82947 -18.82907 -18.82809
 Alpha  occ. eigenvalues --  -18.82461 -17.80708 -14.29475 -14.21192 -14.15301
 Alpha  occ. eigenvalues --  -14.14887 -11.55562 -11.55557 -11.55515 -10.33376
 Alpha  occ. eigenvalues --  -10.33163 -10.32954 -10.22535 -10.20453 -10.20443
 Alpha  occ. eigenvalues --  -10.18427 -10.16471 -10.15393 -10.14474 -10.14106
 Alpha  occ. eigenvalues --  -10.13438 -10.12965 -10.10973 -10.10484 -10.10235
 Alpha  occ. eigenvalues --  -10.07595 -10.06626 -10.06407 -10.06131 -10.06057
 Alpha  occ. eigenvalues --  -10.05997  -7.95830  -7.95339  -7.94974  -6.15342
 Alpha  occ. eigenvalues --   -6.15298  -6.15185  -6.14857  -6.14807  -6.14702
 Alpha  occ. eigenvalues --   -6.14491  -6.14439  -6.14349  -5.40576  -5.40544
 Alpha  occ. eigenvalues --   -5.40530  -5.40517  -5.40477  -2.33736  -1.37806
 Alpha  occ. eigenvalues --   -1.37473  -1.37386  -1.27811  -1.27795  -1.27434
 Alpha  occ. eigenvalues --   -1.27350  -1.27322  -1.27281  -1.23527  -1.23464
 Alpha  occ. eigenvalues --   -1.22386  -1.19650  -1.18687  -1.17991  -1.17737
 Alpha  occ. eigenvalues --   -1.15955  -1.15187  -1.11469  -1.07223  -1.06383
 Alpha  occ. eigenvalues --   -1.05857  -1.05493  -1.05196  -1.04901  -1.04646
 Alpha  occ. eigenvalues --   -1.04212  -1.00427  -0.97744  -0.96649  -0.93285
 Alpha  occ. eigenvalues --   -0.91043  -0.88139  -0.84011  -0.80311  -0.80117
 Alpha  occ. eigenvalues --   -0.79348  -0.79100  -0.79047  -0.78701  -0.78528
 Alpha  occ. eigenvalues --   -0.75539  -0.74535  -0.72114  -0.71633  -0.71600
 Alpha  occ. eigenvalues --   -0.71414  -0.68323  -0.67803  -0.67704  -0.67682
 Alpha  occ. eigenvalues --   -0.67417  -0.67364  -0.67292  -0.67237  -0.65132
 Alpha  occ. eigenvalues --   -0.64346  -0.63480  -0.63003  -0.62209  -0.61937
 Alpha  occ. eigenvalues --   -0.61609  -0.61336  -0.61054  -0.60641  -0.60372
 Alpha  occ. eigenvalues --   -0.60262  -0.60253  -0.60154  -0.60124  -0.60076
 Alpha  occ. eigenvalues --   -0.59103  -0.58797  -0.57650  -0.57025  -0.56522
 Alpha  occ. eigenvalues --   -0.56272  -0.56252  -0.55938  -0.55820  -0.55716
 Alpha  occ. eigenvalues --   -0.55392  -0.55262  -0.55039  -0.54980  -0.54880
 Alpha  occ. eigenvalues --   -0.54805  -0.54427  -0.54056  -0.53815  -0.53735
 Alpha  occ. eigenvalues --   -0.53611  -0.53384  -0.53091  -0.52864  -0.52618
 Alpha  occ. eigenvalues --   -0.51904  -0.51557  -0.51378  -0.51280  -0.51164
 Alpha  occ. eigenvalues --   -0.50884  -0.50747  -0.50355  -0.49585  -0.49112
 Alpha  occ. eigenvalues --   -0.48947  -0.48728  -0.48707  -0.48278  -0.47684
 Alpha  occ. eigenvalues --   -0.47047  -0.46558  -0.46408  -0.46145  -0.45853
 Alpha  occ. eigenvalues --   -0.45366  -0.44838  -0.44456  -0.44140  -0.43714
 Alpha  occ. eigenvalues --   -0.43253  -0.42998  -0.42763  -0.42499  -0.42410
 Alpha  occ. eigenvalues --   -0.41827  -0.41768  -0.41633  -0.40954  -0.40511
 Alpha  occ. eigenvalues --   -0.40273  -0.40178  -0.39845  -0.39756  -0.39602
 Alpha  occ. eigenvalues --   -0.39156  -0.39052  -0.38977  -0.38811  -0.38507
 Alpha  occ. eigenvalues --   -0.38293  -0.38056  -0.37741  -0.37516  -0.37121
 Alpha  occ. eigenvalues --   -0.36997  -0.36574  -0.36227  -0.35826  -0.35527
 Alpha  occ. eigenvalues --   -0.35329  -0.33859  -0.29699  -0.29665  -0.25845
 Alpha virt. eigenvalues --   -0.10398  -0.06006  -0.02848  -0.01051  -0.00477
 Alpha virt. eigenvalues --    0.00723   0.01038   0.03494   0.05453   0.05522
 Alpha virt. eigenvalues --    0.06342   0.06872   0.07109   0.07299   0.08429

  Beta  occ. eigenvalues --  -88.06000 -88.05530 -88.05176 -24.34196 -24.33994
  Beta  occ. eigenvalues --  -24.33956 -24.33753 -24.33709 -24.33661 -24.33632
  Beta  occ. eigenvalues --  -24.33587 -24.33462 -18.87425 -18.87150 -18.86335
  Beta  occ. eigenvalues --  -18.84468 -18.84378 -18.83998 -18.83660 -18.83622
  Beta  occ. eigenvalues --  -18.83506 -18.83259 -18.82947 -18.82907 -18.82809
  Beta  occ. eigenvalues --  -18.82461 -17.80708 -14.29475 -14.21192 -14.15301
  Beta  occ. eigenvalues --  -14.14887 -11.55562 -11.55557 -11.55515 -10.33376
  Beta  occ. eigenvalues --  -10.33163 -10.32954 -10.22535 -10.20453 -10.20443
  Beta  occ. eigenvalues --  -10.18427 -10.16471 -10.15393 -10.14474 -10.14106
  Beta  occ. eigenvalues --  -10.13438 -10.12965 -10.10973 -10.10484 -10.10235
  Beta  occ. eigenvalues --  -10.07595 -10.06626 -10.06407 -10.06131 -10.06057
  Beta  occ. eigenvalues --  -10.05997  -7.95830  -7.95339  -7.94974  -6.15342
  Beta  occ. eigenvalues --   -6.15298  -6.15185  -6.14857  -6.14807  -6.14702
  Beta  occ. eigenvalues --   -6.14491  -6.14439  -6.14349  -5.40576  -5.40544
  Beta  occ. eigenvalues --   -5.40530  -5.40517  -5.40477  -2.33736  -1.37806
  Beta  occ. eigenvalues --   -1.37473  -1.37386  -1.27811  -1.27795  -1.27434
  Beta  occ. eigenvalues --   -1.27350  -1.27322  -1.27281  -1.23527  -1.23464
  Beta  occ. eigenvalues --   -1.22386  -1.19650  -1.18687  -1.17991  -1.17737
  Beta  occ. eigenvalues --   -1.15955  -1.15187  -1.11469  -1.07223  -1.06383
  Beta  occ. eigenvalues --   -1.05857  -1.05493  -1.05196  -1.04901  -1.04646
  Beta  occ. eigenvalues --   -1.04212  -1.00427  -0.97744  -0.96649  -0.93285
  Beta  occ. eigenvalues --   -0.91043  -0.88139  -0.84011  -0.80311  -0.80117
  Beta  occ. eigenvalues --   -0.79348  -0.79100  -0.79047  -0.78701  -0.78528
  Beta  occ. eigenvalues --   -0.75539  -0.74535  -0.72114  -0.71633  -0.71600
  Beta  occ. eigenvalues --   -0.71414  -0.68323  -0.67803  -0.67704  -0.67682
  Beta  occ. eigenvalues --   -0.67417  -0.67364  -0.67292  -0.67237  -0.65132
  Beta  occ. eigenvalues --   -0.64346  -0.63480  -0.63003  -0.62209  -0.61937
  Beta  occ. eigenvalues --   -0.61609  -0.61336  -0.61054  -0.60641  -0.60372
  Beta  occ. eigenvalues --   -0.60262  -0.60253  -0.60154  -0.60124  -0.60076
  Beta  occ. eigenvalues --   -0.59103  -0.58797  -0.57650  -0.57025  -0.56522
  Beta  occ. eigenvalues --   -0.56272  -0.56252  -0.55938  -0.55820  -0.55716
  Beta  occ. eigenvalues --   -0.55392  -0.55262  -0.55039  -0.54980  -0.54880
  Beta  occ. eigenvalues --   -0.54805  -0.54427  -0.54056  -0.53815  -0.53735
  Beta  occ. eigenvalues --   -0.53611  -0.53384  -0.53091  -0.52864  -0.52618
  Beta  occ. eigenvalues --   -0.51904  -0.51557  -0.51378  -0.51280  -0.51164
  Beta  occ. eigenvalues --   -0.50884  -0.50747  -0.50355  -0.49585  -0.49112
  Beta  occ. eigenvalues --   -0.48947  -0.48728  -0.48707  -0.48278  -0.47684
  Beta  occ. eigenvalues --   -0.47047  -0.46558  -0.46408  -0.46145  -0.45853
  Beta  occ. eigenvalues --   -0.45366  -0.44838  -0.44456  -0.44140  -0.43714
  Beta  occ. eigenvalues --   -0.43253  -0.42998  -0.42763  -0.42499  -0.42410
  Beta  occ. eigenvalues --   -0.41827  -0.41768  -0.41633  -0.40954  -0.40511
  Beta  occ. eigenvalues --   -0.40273  -0.40178  -0.39845  -0.39756  -0.39602
  Beta  occ. eigenvalues --   -0.39156  -0.39052  -0.38977  -0.38811  -0.38507
  Beta  occ. eigenvalues --   -0.38293  -0.38056  -0.37741  -0.37516  -0.37121
  Beta  occ. eigenvalues --   -0.36997  -0.36574  -0.36227  -0.35826  -0.35527
  Beta  occ. eigenvalues --   -0.35329  -0.33859  -0.29699  -0.29665  -0.25845
  Beta virt. eigenvalues --   -0.10398  -0.06006  -0.02848  -0.01051  -0.00477
  Beta virt. eigenvalues --    0.00723   0.01038   0.03494   0.05453   0.05522
  Beta virt. eigenvalues --    0.06342   0.06872   0.07109   0.07299   0.08429

 Mulliken charges and spin densities:
               1          2
     1  C   -0.055477   0.000000
     2  C    0.021648   0.000000
     3  C    0.000909   0.000000
     4  C    0.016058   0.000000
     5  C    0.001310   0.000000
     6  C    0.026294   0.000000
     7  C   -0.041511   0.000000
     8  C    0.288230   0.000000
     9  C    0.282098   0.000000
    10  H    0.006048   0.000000
    11  H    0.013478   0.000000
    12  H    0.016440   0.000000
    13  H    0.014388   0.000000
    14  H    0.011166   0.000000
    15  O   -0.328473   0.000000
    16  O   -0.326518   0.000000
    17  O   -0.276039   0.000000
    18  O   -0.290426   0.000000
    19  C    0.164816   0.000000
    20  C    0.151056   0.000000
    21  H    0.058379   0.000000
    22  H    0.058264   0.000000
    23  H    0.035735   0.000000
    24  H    0.059560   0.000000
    25  H    0.073348   0.000000
    26  H    0.044407   0.000000
    27  O   -0.460676   0.000000
    28  O   -0.454914   0.000000
    29  O   -0.437135   0.000000
    30  S    0.854848   0.000000
    31  S    0.834715   0.000000
    32  S    0.849354   0.000000
    33  O   -0.462138   0.000000
    34  O   -0.414116   0.000000
    35  O   -0.454520   0.000000
    36  O   -0.404220   0.000000
    37  O   -0.457179   0.000000
    38  O   -0.421037   0.000000
    39  C    0.435872   0.000000
    40  C    0.432799   0.000000
    41  C    0.431716   0.000000
    42  F   -0.124790   0.000000
    43  F   -0.115353   0.000000
    44  F   -0.126258   0.000000
    45  F   -0.108821   0.000000
    46  F   -0.121388   0.000000
    47  F   -0.120424   0.000000
    48  F   -0.120196   0.000000
    49  F   -0.119437   0.000000
    50  F   -0.122092   0.000000
    51  C    0.283513   0.000000
    52  H    0.049150   0.000000
    53  C   -0.163563   0.000000
    54  C   -0.100063   0.000000
    55  C   -0.190741   0.000000
    56  C    0.026639   0.000000
    57  C    0.070894   0.000000
    58  C    0.152980   0.000000
    59  H    0.097124   0.000000
    60  H    0.089187   0.000000
    61  H    0.078270   0.000000
    62  N    0.134851   0.000000
    63  N    0.161957   0.000000
    64  N   -0.099408   0.000000
    65  N    0.015305   0.000000
    66  C    0.216548   0.000000
    67  H    0.113140   0.000000
    68  Lu   0.520010   0.000000
    69  O   -0.275589   0.000000
 Sum of Mulliken charges =  -0.00000   0.00000

 Dipole moment (field-independent basis, Debye):
    X=            -14.2420    Y=            -13.5141    Z=             -0.0528  Tot=             19.6334
 Quadrupole moment (field-independent basis, Debye-Ang):
   XX=           -346.3888   YY=           -316.2393   ZZ=           -338.9648
   XY=             -6.9263   XZ=             -4.2697   YZ=            -22.3650

  Exact polarizability:   0.000   0.000   0.000   0.000   0.000   0.000
 Approx polarizability: 494.106 -35.895 408.231  16.739  15.684 522.976

 Normal termination of Gaussian 16 at Fri May  2 17:53:32 2025.
