 Gaussian 16, Revision A.03,
 Gaussian 16:  ES64L-G16RevA.03 25-Dec-2016

 ----------------------------------------------------------------------
 #P UMN15/genecp scf=(maxcyc=500) opt scrf=(smd,solvent=DiChloroEthane)
 ----------------------------------------------------------------------

 ---
 Opt
 ---
 Symbolic Z-matrix:
 Charge =  0 Multiplicity = 2

 SCF Done:  E(UMN15) =  -5368.78295361     A.U. after   24 cycles
 SCF Done:  E(UMN15) =  -5368.78613966     A.U. after   16 cycles
 SCF Done:  E(UMN15) =  -5368.77774721     A.U. after   17 cycles
 SCF Done:  E(UMN15) =  -5368.77670472     A.U. after   15 cycles
 SCF Done:  E(UMN15) =  -5368.76373171     A.U. after   16 cycles
 SCF Done:  E(UMN15) =  -5368.77687472     A.U. after   15 cycles
 SCF Done:  E(UMN15) =  -5368.78614148     A.U. after    8 cycles
 SCF Done:  E(UMN15) =  -5368.78647181     A.U. after   15 cycles
 SCF Done:  E(UMN15) =  -5368.78723583     A.U. after   14 cycles
 SCF Done:  E(UMN15) =  -5368.78726553     A.U. after   15 cycles
 SCF Done:  E(UMN15) =  -5368.78790257     A.U. after    8 cycles
 SCF Done:  E(UMN15) =  -5368.78790317     A.U. after    8 cycles
 SCF Done:  E(UMN15) =  -5368.78790320     A.U. after    8 cycles
 SCF Done:  E(UMN15) =  -5368.78790329     A.U. after    7 cycles
 SCF Done:  E(UMN15) =  -5368.78790315     A.U. after    7 cycles
 SCF Done:  E(UMN15) =  -5368.78790313     A.U. after    7 cycles
 SCF Done:  E(UMN15) =  -5368.78790299     A.U. after    7 cycles
 SCF Done:  E(UMN15) =  -5368.78790298     A.U. after    6 cycles
 SCF Done:  E(UMN15) =  -5368.78790335     A.U. after    8 cycles
 SCF Done:  E(UMN15) =  -5368.78790293     A.U. after    8 cycles
 Optimization completed.
    -- Stationary point found.

                         Standard orientation:
 ---------------------------------------------------------------------
 Center     Atomic      Atomic             Coordinates (Angstroms)
 Number     Number       Type             X           Y           Z
 ---------------------------------------------------------------------
      1          6           0       -4.823225    1.197024    0.811144
      2          6           0       -5.636473    1.933752   -0.058783
      3          6           0       -6.443184    2.954554    0.443569
      4          6           0       -6.430390    3.245109    1.810179
      5          6           0       -5.611535    2.515316    2.675736
      6          6           0       -4.807931    1.487599    2.181081
      7          6           0       -1.881949   -1.016034    0.556389
      8          6           0       -1.372248   -0.536868   -0.823101
      9          6           0       -0.744646   -0.950914    1.598410
     10          1           0       -5.631550    1.708769   -1.128927
     11          1           0       -7.075362    3.530372   -0.235262
     12          1           0       -7.057188    4.049213    2.201940
     13          1           0       -5.595401    2.748105    3.742351
     14          1           0       -4.162454    0.918999    2.853820
     15          8           0       -0.060592    0.040282    1.734533
     16          8           0       -0.681173    0.448261   -0.960048
     17          8           0       -1.842993   -1.254455   -1.809757
     18          8           0       -0.666483   -2.027359    2.327895
     19          6           0       -1.476034   -0.868826   -3.148771
     20          6           0        0.408442   -2.081685    3.284613
     21          1           0       -1.830600   -1.671287   -3.803018
     22          1           0       -0.386903   -0.762762   -3.219004
     23          1           0       -1.964575    0.082458   -3.397651
     24          1           0        0.364731   -3.078160    3.733744
     25          1           0        0.261447   -1.306216    4.047640
     26          1           0        1.360952   -1.920488    2.760909
     27          8           0        3.032600   -0.874670    1.371108
     28          8           0        1.972654   -0.873554   -1.968036
     29          8           0        0.654576    2.965658    0.408811
     30         16           0        1.255826    3.607940   -0.783504
     31         16           0        3.828614    0.201624    2.016551
     32         16           0        1.470249   -2.158885   -1.429739
     33          8           0        1.932325    2.572230   -1.608247
     34          8           0        1.975309    4.846928   -0.574357
     35          8           0        3.177588    1.508861    1.752548
     36          8           0        4.311124   -0.047443    3.356271
     37          8           0        0.785033   -1.920747   -0.130307
     38          8           0        0.753022   -3.022002   -2.351545
     39          6           0        3.007072   -3.105095   -0.968919
     40          6           0        5.307788    0.280519    0.931244
     41          6           0       -0.188746    4.097691   -1.807476
     42          9           0        2.823362   -3.714001    0.188200
     43          9           0        4.045174   -2.295223   -0.888973
     44          9           0        3.241290   -4.011926   -1.903466
     45          9           0        4.900496    0.558069   -0.306418
     46          9           0        5.943326   -0.878651    0.925615
     47          9           0        6.134216    1.230104    1.334024
     48          9           0       -0.892732    3.037709   -2.173035
     49          9           0        0.233012    4.727312   -2.894265
     50          9           0       -0.968403    4.912571   -1.112151
     51          6           0       -3.985591    0.079109    0.257845
     52          1           0       -3.752228    0.271955   -0.804659
     53          6           0       -4.749058   -1.311262    0.273271
     54          6           0       -5.929755   -1.249878   -0.599052
     55          6           0       -5.148571   -1.636596    1.657759
     56          6           0       -1.681018   -3.520795   -0.046379
     57          6           0       -3.322744   -3.941442   -1.733826
     58          6           0       -2.078955   -4.249356   -1.129427
     59          1           0       -0.734699   -3.706224    0.461919
     60          1           0       -3.680524   -4.467863   -2.620709
     61          1           0       -1.458940   -5.048690   -1.534863
     62          7           0       -6.872549   -1.118395   -1.254573
     63          7           0       -5.434107   -1.879940    2.751563
     64          7           0       -3.804307   -2.335399   -0.214123
     65          7           0       -4.148186   -3.014345   -1.258549
     66          6           0       -2.536179   -2.440666    0.500155
     67          1           0       -2.759210   -2.671964    1.562768
     68         70           0        1.607794    0.683756   -0.011909
     69          8           0       -2.829513   -0.098820    1.034843
 ---------------------------------------------------------------------

 The electronic state is 2-A.
 Alpha  occ. eigenvalues --  -88.04808 -88.03789 -88.03251 -24.33208 -24.33164
 Alpha  occ. eigenvalues --  -24.33078 -24.33061 -24.32851 -24.32829 -24.32552
 Alpha  occ. eigenvalues --  -24.32463 -24.32442 -18.91543 -18.90716 -18.90597
 Alpha  occ. eigenvalues --  -18.86096 -18.85461 -18.83090 -18.82797 -18.82047
 Alpha  occ. eigenvalues --  -18.81783 -18.81721 -18.81389 -18.81165 -18.81140
 Alpha  occ. eigenvalues --  -18.80384 -16.28930 -14.28988 -14.22689 -14.15731
 Alpha  occ. eigenvalues --  -14.15471 -10.92307 -10.92267 -10.92249 -10.32462
 Alpha  occ. eigenvalues --  -10.31654 -10.31284 -10.24756 -10.24367 -10.23453
 Alpha  occ. eigenvalues --  -10.20555 -10.18567 -10.18213 -10.16409 -10.14824
 Alpha  occ. eigenvalues --  -10.14749 -10.14674 -10.12296 -10.12142 -10.11556
 Alpha  occ. eigenvalues --  -10.08589 -10.07239 -10.07117 -10.06541 -10.06467
 Alpha  occ. eigenvalues --  -10.06427  -7.94529  -7.93541  -7.93020  -6.14050
 Alpha  occ. eigenvalues --   -6.13993  -6.13930  -6.13035  -6.13007  -6.12959
 Alpha  occ. eigenvalues --   -6.12522  -6.12493  -6.12429  -5.00599  -5.00558
 Alpha  occ. eigenvalues --   -5.00531  -5.00519  -5.00482  -1.96116  -1.36870
 Alpha  occ. eigenvalues --   -1.36477  -1.36127  -1.26888  -1.26724  -1.26520
 Alpha  occ. eigenvalues --   -1.26489  -1.26100  -1.26073  -1.20968  -1.19251
 Alpha  occ. eigenvalues --   -1.18837  -1.18449  -1.17969  -1.17403  -1.15882
 Alpha  occ. eigenvalues --   -1.10594  -1.09409  -1.05565  -1.05228  -1.04474
 Alpha  occ. eigenvalues --   -1.04317  -1.03335  -1.03050  -1.01077  -1.00857
 Alpha  occ. eigenvalues --   -1.00378  -1.00173  -0.98184  -0.97302  -0.95067
 Alpha  occ. eigenvalues --   -0.91850  -0.89297  -0.85517  -0.82550  -0.81405
 Alpha  occ. eigenvalues --   -0.79718  -0.79261  -0.78741  -0.78437  -0.78039
 Alpha  occ. eigenvalues --   -0.77314  -0.75986  -0.73621  -0.71069  -0.70610
 Alpha  occ. eigenvalues --   -0.70208  -0.68704  -0.67935  -0.66956  -0.66925
 Alpha  occ. eigenvalues --   -0.66796  -0.66517  -0.66364  -0.66135  -0.66101
 Alpha  occ. eigenvalues --   -0.65761  -0.64971  -0.63830  -0.63647  -0.63312
 Alpha  occ. eigenvalues --   -0.62232  -0.61414  -0.60708  -0.59784  -0.59287
 Alpha  occ. eigenvalues --   -0.58528  -0.58090  -0.57536  -0.57396  -0.56929
 Alpha  occ. eigenvalues --   -0.56571  -0.56101  -0.55122  -0.55017  -0.54787
 Alpha  occ. eigenvalues --   -0.54631  -0.54385  -0.54359  -0.54134  -0.53663
 Alpha  occ. eigenvalues --   -0.53215  -0.52944  -0.52812  -0.52401  -0.52222
 Alpha  occ. eigenvalues --   -0.52185  -0.52024  -0.51715  -0.51682  -0.51447
 Alpha  occ. eigenvalues --   -0.50985  -0.50768  -0.50669  -0.50446  -0.50305
 Alpha  occ. eigenvalues --   -0.50085  -0.49955  -0.49880  -0.49724  -0.49153
 Alpha  occ. eigenvalues --   -0.48310  -0.48227  -0.48050  -0.47843  -0.47670
 Alpha  occ. eigenvalues --   -0.47153  -0.46921  -0.46256  -0.46107  -0.45843
 Alpha  occ. eigenvalues --   -0.44798  -0.44292  -0.43973  -0.43744  -0.43608
 Alpha  occ. eigenvalues --   -0.43011  -0.42777  -0.42333  -0.42221  -0.42190
 Alpha  occ. eigenvalues --   -0.41911  -0.41544  -0.40875  -0.40770  -0.40456
 Alpha  occ. eigenvalues --   -0.40034  -0.39866  -0.39538  -0.39200  -0.38930
 Alpha  occ. eigenvalues --   -0.38676  -0.38317  -0.38044  -0.37968  -0.37563
 Alpha  occ. eigenvalues --   -0.37125  -0.36990  -0.36867  -0.36337  -0.36131
 Alpha  occ. eigenvalues --   -0.35307  -0.34962  -0.34484  -0.33733  -0.32997
 Alpha  occ. eigenvalues --   -0.31032  -0.30197  -0.30064  -0.27205  -0.27173
 Alpha  occ. eigenvalues --   -0.27143  -0.27105  -0.27053  -0.27008  -0.26930
 Alpha virt. eigenvalues --   -0.09924  -0.04116  -0.03128  -0.01271  -0.00110
 Alpha virt. eigenvalues --    0.00242   0.00655   0.02946   0.04178   0.05029
 Alpha virt. eigenvalues --    0.06484   0.07619   0.08048   0.08754   0.09375

  Beta  occ. eigenvalues --  -88.04808 -88.03789 -88.03251 -24.33208 -24.33164
  Beta  occ. eigenvalues --  -24.33078 -24.33060 -24.32851 -24.32829 -24.32552
  Beta  occ. eigenvalues --  -24.32463 -24.32442 -18.91536 -18.90712 -18.90562
  Beta  occ. eigenvalues --  -18.86087 -18.85454 -18.83081 -18.82797 -18.82041
  Beta  occ. eigenvalues --  -18.81782 -18.81721 -18.81389 -18.81165 -18.81140
  Beta  occ. eigenvalues --  -18.80384 -16.28929 -14.28455 -14.22610 -14.15732
  Beta  occ. eigenvalues --  -14.15471 -10.92307 -10.92267 -10.92249 -10.32461
  Beta  occ. eigenvalues --  -10.31654 -10.31284 -10.24757 -10.24370 -10.23466
  Beta  occ. eigenvalues --  -10.20456 -10.18545 -10.18237 -10.16266 -10.14807
  Beta  occ. eigenvalues --  -10.14747 -10.14479 -10.12294 -10.12166 -10.11556
  Beta  occ. eigenvalues --  -10.08587 -10.07237 -10.07115 -10.06539 -10.06468
  Beta  occ. eigenvalues --  -10.06428  -7.94530  -7.93541  -7.93020  -6.14050
  Beta  occ. eigenvalues --   -6.13993  -6.13930  -6.13035  -6.13007  -6.12959
  Beta  occ. eigenvalues --   -6.12522  -6.12493  -6.12429  -5.00598  -5.00558
  Beta  occ. eigenvalues --   -5.00530  -5.00518  -5.00481  -1.96115  -1.36870
  Beta  occ. eigenvalues --   -1.36477  -1.36127  -1.26888  -1.26724  -1.26520
  Beta  occ. eigenvalues --   -1.26489  -1.26100  -1.26073  -1.20840  -1.19242
  Beta  occ. eigenvalues --   -1.18740  -1.17969  -1.17735  -1.17403  -1.15535
  Beta  occ. eigenvalues --   -1.10571  -1.09396  -1.05559  -1.05228  -1.04469
  Beta  occ. eigenvalues --   -1.04311  -1.03335  -1.03049  -1.00892  -1.00732
  Beta  occ. eigenvalues --   -1.00377  -1.00172  -0.98167  -0.96631  -0.94660
  Beta  occ. eigenvalues --   -0.91588  -0.88976  -0.85136  -0.82439  -0.81361
  Beta  occ. eigenvalues --   -0.79256  -0.78863  -0.78694  -0.78433  -0.78039
  Beta  occ. eigenvalues --   -0.77235  -0.75561  -0.73350  -0.71063  -0.70609
  Beta  occ. eigenvalues --   -0.70207  -0.68372  -0.67535  -0.66932  -0.66799
  Beta  occ. eigenvalues --   -0.66771  -0.66517  -0.66363  -0.66135  -0.66101
  Beta  occ. eigenvalues --   -0.65569  -0.64544  -0.63651  -0.63481  -0.63126
  Beta  occ. eigenvalues --   -0.62013  -0.61369  -0.60412  -0.59779  -0.59281
  Beta  occ. eigenvalues --   -0.58202  -0.57845  -0.57400  -0.57078  -0.56771
  Beta  occ. eigenvalues --   -0.56450  -0.55909  -0.55042  -0.54804  -0.54677
  Beta  occ. eigenvalues --   -0.54608  -0.54382  -0.54353  -0.54131  -0.53551
  Beta  occ. eigenvalues --   -0.53188  -0.52833  -0.52409  -0.52264  -0.52190
  Beta  occ. eigenvalues --   -0.52101  -0.51996  -0.51672  -0.51642  -0.51399
  Beta  occ. eigenvalues --   -0.50951  -0.50758  -0.50307  -0.50305  -0.50049
  Beta  occ. eigenvalues --   -0.49991  -0.49929  -0.49876  -0.49712  -0.48882
  Beta  occ. eigenvalues --   -0.48235  -0.48061  -0.48043  -0.47687  -0.47470
  Beta  occ. eigenvalues --   -0.47113  -0.46912  -0.46235  -0.46072  -0.45796
  Beta  occ. eigenvalues --   -0.44608  -0.44118  -0.43723  -0.43679  -0.43488
  Beta  occ. eigenvalues --   -0.42847  -0.42599  -0.42205  -0.42171  -0.42146
  Beta  occ. eigenvalues --   -0.41763  -0.41515  -0.40702  -0.40575  -0.39921
  Beta  occ. eigenvalues --   -0.39825  -0.39687  -0.39152  -0.38987  -0.38654
  Beta  occ. eigenvalues --   -0.38612  -0.38025  -0.37945  -0.37707  -0.37459
  Beta  occ. eigenvalues --   -0.37110  -0.36981  -0.36861  -0.36202  -0.35985
  Beta  occ. eigenvalues --   -0.35300  -0.34960  -0.34459  -0.33728  -0.32994
  Beta  occ. eigenvalues --   -0.30369  -0.30161  -0.27204  -0.27173  -0.27141
  Beta  occ. eigenvalues --   -0.27102  -0.27052  -0.27008  -0.26930
  Beta virt. eigenvalues --   -0.17799  -0.07629  -0.03969  -0.02994  -0.01171
  Beta virt. eigenvalues --   -0.00092   0.00256   0.00680   0.03156   0.04929
  Beta virt. eigenvalues --    0.05897   0.06528   0.07752   0.08054   0.08759

 Mulliken charges and spin densities:
               1          2
     1  C   -0.010751   0.001078
     2  C    0.019636   0.002910
     3  C    0.004867  -0.001575
     4  C    0.021766   0.003079
     5  C    0.005366  -0.000733
     6  C    0.024502   0.002129
     7  C   -0.093834   0.058574
     8  C    0.191311  -0.000191
     9  C    0.306773  -0.001241
    10  H    0.009854  -0.000150
    11  H    0.018125   0.000102
    12  H    0.021160  -0.000196
    13  H    0.019144   0.000071
    14  H    0.014621  -0.000175
    15  O   -0.203801   0.002764
    16  O   -0.174720   0.004174
    17  O   -0.250105   0.001875
    18  O   -0.258255   0.001331
    19  C    0.160745   0.001015
    20  C    0.155203   0.000115
    21  H    0.071280  -0.000422
    22  H    0.059336   0.000232
    23  H    0.077632   0.000088
    24  H    0.070574   0.000043
    25  H    0.077795   0.000020
    26  H    0.067432   0.000135
    27  O   -0.462792   0.000029
    28  O   -0.453103  -0.000018
    29  O   -0.465600   0.000008
    30  S    0.848507  -0.000002
    31  S    0.823197   0.000002
    32  S    0.822802  -0.000955
    33  O   -0.481661   0.000022
    34  O   -0.448096   0.000004
    35  O   -0.468929   0.000014
    36  O   -0.435413   0.000002
    37  O   -0.485794   0.002699
    38  O   -0.441890   0.001906
    39  C    0.431666   0.000430
    40  C    0.413196   0.000002
    41  C    0.403876   0.000002
    42  F   -0.127924   0.000013
    43  F   -0.116474   0.000023
    44  F   -0.134491   0.000011
    45  F   -0.127407   0.000001
    46  F   -0.131242  -0.000000
    47  F   -0.130577   0.000000
    48  F   -0.130511   0.000001
    49  F   -0.140250   0.000000
    50  F   -0.140452   0.000000
    51  C    0.218695   0.018131
    52  H    0.085387  -0.000990
    53  C   -0.126051  -0.030807
    54  C   -0.144132   0.002222
    55  C   -0.131360   0.015961
    56  C    0.086034   0.339823
    57  C    0.082289   0.216401
    58  C    0.083071  -0.047437
    59  H    0.089246  -0.020478
    60  H    0.102820  -0.015082
    61  H    0.080280   0.000908
    62  N    0.160682   0.000911
    63  N    0.139258  -0.000120
    64  N   -0.139794   0.354563
    65  N    0.046452   0.069963
    66  C    0.247318  -0.057991
    67  H    0.131228   0.060457
    68  Yb   0.421819  -0.000432
    69  O   -0.259532   0.014749
 Sum of Mulliken charges =  -0.00000   1.00000

 Dipole moment (field-independent basis, Debye):
    X=            -21.7363    Y=            -18.9191    Z=             -3.1686  Tot=             28.9904
 Quadrupole moment (field-independent basis, Debye-Ang):
   XX=           -351.9725   YY=           -324.2980   ZZ=           -333.6373
   XY=             -5.9025   XZ=             -0.4405   YZ=              7.2591

 Normal termination of Gaussian 16 at Sat Feb  8 02:57:31 2025.
