 Gaussian 16, Revision A.03,
 Gaussian 16:  ES64L-G16RevA.03 25-Dec-2016

 ----------------------------------------------------------------------
 #P UMN15/genecp scf=(maxcyc=500) opt scrf=(smd,solvent=DiChloroEthane)
 ----------------------------------------------------------------------

 ---
 Opt
 ---
 Symbolic Z-matrix:
 Charge =  0 Multiplicity = 1

 SCF Done:  E(UMN15) =  -5446.19094697     A.U. after   19 cycles
 SCF Done:  E(UMN15) =  -5446.19468727     A.U. after   14 cycles
 SCF Done:  E(UMN15) =  -5446.17110608     A.U. after   14 cycles
 SCF Done:  E(UMN15) =  -5446.20153732     A.U. after   13 cycles
 SCF Done:  E(UMN15) =  -5446.20371123     A.U. after   12 cycles
 SCF Done:  E(UMN15) =  -5446.20367883     A.U. after   13 cycles
 SCF Done:  E(UMN15) =  -5446.20514871     A.U. after   12 cycles
 SCF Done:  E(UMN15) =  -5446.20556621     A.U. after   12 cycles
 SCF Done:  E(UMN15) =  -5446.20599752     A.U. after   12 cycles
 SCF Done:  E(UMN15) =  -5446.20643207     A.U. after   12 cycles
 SCF Done:  E(UMN15) =  -5446.20694712     A.U. after    8 cycles
 SCF Done:  E(UMN15) =  -5446.20694773     A.U. after    7 cycles
 SCF Done:  E(UMN15) =  -5446.20694786     A.U. after    6 cycles
 SCF Done:  E(UMN15) =  -5446.20694759     A.U. after    6 cycles
 SCF Done:  E(UMN15) =  -5446.20694733     A.U. after    6 cycles
 SCF Done:  E(UMN15) =  -5446.20694766     A.U. after    7 cycles
 SCF Done:  E(UMN15) =  -5446.20694684     A.U. after    8 cycles
 SCF Done:  E(UMN15) =  -5446.20694656     A.U. after    6 cycles
 SCF Done:  E(UMN15) =  -5446.20694610     A.U. after    6 cycles
 SCF Done:  E(UMN15) =  -5446.20694577     A.U. after    5 cycles
 Optimization completed.
    -- Stationary point found.

                         Standard orientation:
 ---------------------------------------------------------------------
 Center     Atomic      Atomic             Coordinates (Angstroms)
 Number     Number       Type             X           Y           Z
 ---------------------------------------------------------------------
      1          6           0       -4.651594    1.201286    0.991843
      2          6           0       -5.969485    0.804942    0.739060
      3          6           0       -6.889607    0.725604    1.786842
      4          6           0       -6.498254    1.054143    3.085421
      5          6           0       -5.190095    1.484482    3.333942
      6          6           0       -4.270353    1.565842    2.290193
      7          6           0       -2.326021    0.664125   -0.134325
      8          6           0       -1.626761    0.337337   -1.436916
      9          6           0       -1.697247   -0.035257    1.054329
     10          1           0       -6.270543    0.554662   -0.281350
     11          1           0       -7.914736    0.407051    1.585924
     12          1           0       -7.216020    0.989079    3.906299
     13          1           0       -4.888758    1.763885    4.345952
     14          1           0       -3.251889    1.917198    2.480469
     15          8           0       -0.491772    0.046041    1.284535
     16          8           0       -0.405816    0.173952   -1.489801
     17          8           0       -2.395777    0.305827   -2.468955
     18          8           0       -2.512956   -0.716209    1.787520
     19          6           0       -1.810936    0.015330   -3.748468
     20          6           0       -2.026225   -1.326138    2.994087
     21          1           0       -2.645153   -0.041599   -4.453427
     22          1           0       -1.276669   -0.943122   -3.696770
     23          1           0       -1.115029    0.817622   -4.026272
     24          1           0       -2.884823   -1.848142    3.428397
     25          1           0       -1.661243   -0.544903    3.674512
     26          1           0       -1.211239   -2.023660    2.758417
     27          8           0        2.407729   -0.199916    1.880891
     28          8           0        2.702998   -0.626792   -1.422544
     29          8           0        0.345134    2.579071    0.341660
     30         16           0        1.011792    3.303583   -0.793175
     31         16           0        3.418955    0.905164    1.986134
     32         16           0        2.098830   -1.992329   -1.265217
     33          8           0        1.686822    2.231926   -1.586746
     34          8           0        1.755482    4.493832   -0.478434
     35          8           0        3.154920    1.761456    0.789709
     36          8           0        3.572922    1.545114    3.264033
     37          8           0        1.060829   -1.839399   -0.205526
     38          8           0        1.741048   -2.686335   -2.477770
     39          6           0        3.424989   -3.012018   -0.485628
     40          6           0        5.031408    0.088685    1.626491
     41          6           0       -0.386341    3.884136   -1.846854
     42          9           0        3.062328   -4.280060   -0.549919
     43          9           0        3.578227   -2.660999    0.775555
     44          9           0        4.551446   -2.834212   -1.143668
     45          9           0        5.046934   -0.336775    0.376636
     46          9           0        5.187598   -0.930327    2.448242
     47          9           0        5.998466    0.964472    1.809608
     48          9           0       -1.021239    2.852596   -2.383018
     49          9           0        0.099516    4.640981   -2.810690
     50          9           0       -1.219581    4.582581   -1.105836
     51          6           0       -3.689198    1.255915   -0.144850
     52          1           0       -4.147614    1.313996   -1.138922
     53          6           0       -4.188872   -2.384784   -0.315556
     54          6           0       -4.763688   -1.688037   -1.397255
     55          6           0       -4.810293   -2.443572    0.946704
     56          6           0       -1.208146   -4.477724    0.188229
     57          6           0       -1.233083   -3.432605   -1.938710
     58          6           0       -0.598775   -4.303268   -1.045313
     59          1           0       -0.786096   -5.121230    0.961063
     60          1           0       -0.803276   -3.210623   -2.918274
     61          1           0        0.341901   -4.785176   -1.309557
     62          7           0       -5.280770   -1.093412   -2.258316
     63          7           0       -5.292727   -2.500383    2.008555
     64          7           0       -2.954055   -3.022150   -0.501115
     65          7           0       -2.368136   -2.805685   -1.676114
     66          6           0       -2.401291   -3.819110    0.447258
     67          1           0       -2.955884   -3.926802    1.379977
     68         71           0        1.321724    0.524883   -0.015880
     69          8           0       -2.525661    2.051885    0.016521
 ---------------------------------------------------------------------

 The electronic state is 1-A.
 Alpha  occ. eigenvalues --  -88.07141 -88.06733 -88.06395 -24.34878 -24.34877
 Alpha  occ. eigenvalues --  -24.34847 -24.34738 -24.34681 -24.34481 -24.34411
 Alpha  occ. eigenvalues --  -24.34279 -24.34250 -18.91629 -18.91390 -18.87926
 Alpha  occ. eigenvalues --  -18.87755 -18.87747 -18.85838 -18.85487 -18.85394
 Alpha  occ. eigenvalues --  -18.85279 -18.85009 -18.84712 -18.84573 -18.84126
 Alpha  occ. eigenvalues --  -18.83554 -17.83284 -14.27527 -14.17811 -14.10842
 Alpha  occ. eigenvalues --  -14.10307 -11.58164 -11.58119 -11.58084 -10.34478
 Alpha  occ. eigenvalues --  -10.34155 -10.33978 -10.25447 -10.25305 -10.17121
 Alpha  occ. eigenvalues --  -10.14476 -10.14040 -10.12968 -10.12936 -10.12484
 Alpha  occ. eigenvalues --  -10.12235 -10.10863 -10.10815 -10.10636 -10.09727
 Alpha  occ. eigenvalues --  -10.07250 -10.06301 -10.06117 -10.05884 -10.05812
 Alpha  occ. eigenvalues --  -10.05718  -7.96977  -7.96614  -7.96224  -6.16505
 Alpha  occ. eigenvalues --   -6.16445  -6.16317  -6.16138  -6.16079  -6.15949
 Alpha  occ. eigenvalues --   -6.15751  -6.15692  -6.15572  -5.43171  -5.43121
 Alpha  occ. eigenvalues --   -5.43106  -5.43076  -5.43067  -2.36302  -1.38725
 Alpha  occ. eigenvalues --   -1.38366  -1.38289  -1.28691  -1.28647  -1.28363
 Alpha  occ. eigenvalues --   -1.28357  -1.28280  -1.28138  -1.26100  -1.25723
 Alpha  occ. eigenvalues --   -1.24616  -1.21401  -1.20736  -1.20259  -1.19791
 Alpha  occ. eigenvalues --   -1.19142  -1.16567  -1.14708  -1.11017  -1.10182
 Alpha  occ. eigenvalues --   -1.08153  -1.07772  -1.07156  -1.06367  -1.05969
 Alpha  occ. eigenvalues --   -1.05463  -0.96167  -0.93510  -0.93178  -0.90199
 Alpha  occ. eigenvalues --   -0.89854  -0.84869  -0.82171  -0.81911  -0.81051
 Alpha  occ. eigenvalues --   -0.80841  -0.80774  -0.80475  -0.78368  -0.76113
 Alpha  occ. eigenvalues --   -0.75665  -0.73111  -0.72896  -0.72710  -0.72593
 Alpha  occ. eigenvalues --   -0.71856  -0.68794  -0.68644  -0.68477  -0.68166
 Alpha  occ. eigenvalues --   -0.68073  -0.68041  -0.67224  -0.65441  -0.64812
 Alpha  occ. eigenvalues --   -0.64650  -0.64102  -0.63782  -0.63357  -0.63168
 Alpha  occ. eigenvalues --   -0.63156  -0.62928  -0.62834  -0.62786  -0.62762
 Alpha  occ. eigenvalues --   -0.62741  -0.62422  -0.62230  -0.62114  -0.60378
 Alpha  occ. eigenvalues --   -0.59895  -0.59490  -0.58756  -0.58545  -0.58025
 Alpha  occ. eigenvalues --   -0.57804  -0.57620  -0.57202  -0.56744  -0.56512
 Alpha  occ. eigenvalues --   -0.56327  -0.56278  -0.56151  -0.55962  -0.55476
 Alpha  occ. eigenvalues --   -0.55393  -0.55156  -0.54943  -0.54768  -0.54526
 Alpha  occ. eigenvalues --   -0.54372  -0.54114  -0.53648  -0.53440  -0.52841
 Alpha  occ. eigenvalues --   -0.52750  -0.52380  -0.52043  -0.52001  -0.51844
 Alpha  occ. eigenvalues --   -0.51610  -0.51498  -0.50568  -0.49833  -0.49621
 Alpha  occ. eigenvalues --   -0.49561  -0.49238  -0.48527  -0.48274  -0.48118
 Alpha  occ. eigenvalues --   -0.47235  -0.47157  -0.46890  -0.46293  -0.46039
 Alpha  occ. eigenvalues --   -0.45441  -0.45412  -0.45240  -0.44192  -0.43883
 Alpha  occ. eigenvalues --   -0.43506  -0.43304  -0.43100  -0.42894  -0.42632
 Alpha  occ. eigenvalues --   -0.41977  -0.41803  -0.41751  -0.41116  -0.40923
 Alpha  occ. eigenvalues --   -0.40735  -0.40426  -0.40209  -0.39904  -0.39843
 Alpha  occ. eigenvalues --   -0.39805  -0.39548  -0.39247  -0.38868  -0.38684
 Alpha  occ. eigenvalues --   -0.38482  -0.38439  -0.38400  -0.38089  -0.37877
 Alpha  occ. eigenvalues --   -0.37475  -0.37313  -0.37128  -0.37000  -0.36526
 Alpha  occ. eigenvalues --   -0.36069  -0.35712  -0.29361  -0.28820  -0.24789
 Alpha virt. eigenvalues --   -0.07380  -0.05976  -0.03603  -0.01413  -0.00117
 Alpha virt. eigenvalues --    0.00455   0.01814   0.03589   0.04864   0.05643
 Alpha virt. eigenvalues --    0.05665   0.05863   0.06437   0.07806   0.07930

  Beta  occ. eigenvalues --  -88.07141 -88.06733 -88.06395 -24.34878 -24.34877
  Beta  occ. eigenvalues --  -24.34847 -24.34738 -24.34681 -24.34481 -24.34411
  Beta  occ. eigenvalues --  -24.34279 -24.34250 -18.91629 -18.91390 -18.87926
  Beta  occ. eigenvalues --  -18.87755 -18.87747 -18.85838 -18.85487 -18.85394
  Beta  occ. eigenvalues --  -18.85279 -18.85009 -18.84712 -18.84573 -18.84126
  Beta  occ. eigenvalues --  -18.83554 -17.83284 -14.27527 -14.17811 -14.10842
  Beta  occ. eigenvalues --  -14.10307 -11.58164 -11.58119 -11.58084 -10.34478
  Beta  occ. eigenvalues --  -10.34155 -10.33978 -10.25447 -10.25305 -10.17121
  Beta  occ. eigenvalues --  -10.14476 -10.14040 -10.12968 -10.12936 -10.12484
  Beta  occ. eigenvalues --  -10.12235 -10.10863 -10.10815 -10.10636 -10.09727
  Beta  occ. eigenvalues --  -10.07250 -10.06301 -10.06117 -10.05884 -10.05812
  Beta  occ. eigenvalues --  -10.05718  -7.96977  -7.96614  -7.96224  -6.16505
  Beta  occ. eigenvalues --   -6.16445  -6.16317  -6.16138  -6.16079  -6.15949
  Beta  occ. eigenvalues --   -6.15751  -6.15692  -6.15572  -5.43171  -5.43121
  Beta  occ. eigenvalues --   -5.43106  -5.43076  -5.43067  -2.36302  -1.38725
  Beta  occ. eigenvalues --   -1.38366  -1.38289  -1.28691  -1.28647  -1.28363
  Beta  occ. eigenvalues --   -1.28357  -1.28280  -1.28138  -1.26100  -1.25723
  Beta  occ. eigenvalues --   -1.24616  -1.21401  -1.20736  -1.20259  -1.19791
  Beta  occ. eigenvalues --   -1.19142  -1.16567  -1.14708  -1.11017  -1.10182
  Beta  occ. eigenvalues --   -1.08153  -1.07772  -1.07156  -1.06367  -1.05969
  Beta  occ. eigenvalues --   -1.05463  -0.96167  -0.93510  -0.93178  -0.90199
  Beta  occ. eigenvalues --   -0.89854  -0.84869  -0.82171  -0.81911  -0.81051
  Beta  occ. eigenvalues --   -0.80841  -0.80774  -0.80475  -0.78368  -0.76113
  Beta  occ. eigenvalues --   -0.75665  -0.73111  -0.72896  -0.72710  -0.72593
  Beta  occ. eigenvalues --   -0.71856  -0.68794  -0.68644  -0.68477  -0.68166
  Beta  occ. eigenvalues --   -0.68073  -0.68041  -0.67224  -0.65441  -0.64812
  Beta  occ. eigenvalues --   -0.64650  -0.64102  -0.63782  -0.63357  -0.63168
  Beta  occ. eigenvalues --   -0.63156  -0.62928  -0.62834  -0.62786  -0.62762
  Beta  occ. eigenvalues --   -0.62741  -0.62422  -0.62230  -0.62114  -0.60378
  Beta  occ. eigenvalues --   -0.59895  -0.59490  -0.58756  -0.58545  -0.58025
  Beta  occ. eigenvalues --   -0.57804  -0.57620  -0.57202  -0.56744  -0.56512
  Beta  occ. eigenvalues --   -0.56327  -0.56278  -0.56151  -0.55962  -0.55476
  Beta  occ. eigenvalues --   -0.55393  -0.55156  -0.54943  -0.54768  -0.54526
  Beta  occ. eigenvalues --   -0.54372  -0.54114  -0.53648  -0.53440  -0.52841
  Beta  occ. eigenvalues --   -0.52750  -0.52380  -0.52043  -0.52001  -0.51844
  Beta  occ. eigenvalues --   -0.51610  -0.51498  -0.50568  -0.49833  -0.49621
  Beta  occ. eigenvalues --   -0.49561  -0.49238  -0.48527  -0.48274  -0.48118
  Beta  occ. eigenvalues --   -0.47235  -0.47157  -0.46890  -0.46293  -0.46039
  Beta  occ. eigenvalues --   -0.45441  -0.45412  -0.45240  -0.44192  -0.43883
  Beta  occ. eigenvalues --   -0.43506  -0.43304  -0.43100  -0.42894  -0.42632
  Beta  occ. eigenvalues --   -0.41977  -0.41803  -0.41751  -0.41116  -0.40923
  Beta  occ. eigenvalues --   -0.40735  -0.40426  -0.40209  -0.39904  -0.39843
  Beta  occ. eigenvalues --   -0.39805  -0.39548  -0.39247  -0.38868  -0.38684
  Beta  occ. eigenvalues --   -0.38482  -0.38439  -0.38400  -0.38089  -0.37877
  Beta  occ. eigenvalues --   -0.37475  -0.37313  -0.37128  -0.37000  -0.36526
  Beta  occ. eigenvalues --   -0.36069  -0.35712  -0.29361  -0.28820  -0.24789
  Beta virt. eigenvalues --   -0.07380  -0.05976  -0.03603  -0.01413  -0.00117
  Beta virt. eigenvalues --    0.00455   0.01814   0.03589   0.04864   0.05643
  Beta virt. eigenvalues --    0.05665   0.05863   0.06437   0.07806   0.07930

 Mulliken charges and spin densities:
               1          2
     1  C    0.047191   0.000000
     2  C    0.016187   0.000000
     3  C   -0.006752   0.000000
     4  C    0.013704   0.000000
     5  C   -0.002075   0.000000
     6  C   -0.018662   0.000000
     7  C   -0.022262   0.000000
     8  C    0.298638   0.000000
     9  C    0.304870   0.000000
    10  H   -0.010932   0.000000
    11  H    0.011469   0.000000
    12  H    0.013431   0.000000
    13  H    0.010879   0.000000
    14  H    0.010279   0.000000
    15  O   -0.252984   0.000000
    16  O   -0.249140   0.000000
    17  O   -0.199743   0.000000
    18  O   -0.203542   0.000000
    19  C    0.157037   0.000000
    20  C    0.144966   0.000000
    21  H    0.080862   0.000000
    22  H    0.064361   0.000000
    23  H    0.079835   0.000000
    24  H    0.070442   0.000000
    25  H    0.086748   0.000000
    26  H    0.078361   0.000000
    27  O   -0.456393   0.000000
    28  O   -0.449000   0.000000
    29  O   -0.445999   0.000000
    30  S    0.864772   0.000000
    31  S    0.848235   0.000000
    32  S    0.844211   0.000000
    33  O   -0.455379   0.000000
    34  O   -0.397071   0.000000
    35  O   -0.455324   0.000000
    36  O   -0.394197   0.000000
    37  O   -0.440561   0.000000
    38  O   -0.399204   0.000000
    39  C    0.433841   0.000000
    40  C    0.429114   0.000000
    41  C    0.431317   0.000000
    42  F   -0.120242   0.000000
    43  F   -0.107987   0.000000
    44  F   -0.114552   0.000000
    45  F   -0.110335   0.000000
    46  F   -0.119129   0.000000
    47  F   -0.117481   0.000000
    48  F   -0.118633   0.000000
    49  F   -0.120624   0.000000
    50  F   -0.113814   0.000000
    51  C    0.156769   0.000000
    52  H    0.042095   0.000000
    53  C   -0.308400   0.000000
    54  C   -0.104157   0.000000
    55  C   -0.153143   0.000000
    56  C    0.046527   0.000000
    57  C    0.024815   0.000000
    58  C    0.073896   0.000000
    59  H    0.071180   0.000000
    60  H    0.077622   0.000000
    61  H    0.038773   0.000000
    62  N    0.051368   0.000000
    63  N    0.060492   0.000000
    64  N   -0.017394   0.000000
    65  N   -0.050723   0.000000
    66  C    0.116449   0.000000
    67  H    0.074913   0.000000
    68  Lu   0.588957   0.000000
    69  O   -0.228773   0.000000
 Sum of Mulliken charges =  -0.00000   0.00000

 Dipole moment (field-independent basis, Debye):
    X=             -5.1334    Y=            -12.6602    Z=             -0.2405  Tot=             13.6635
 Quadrupole moment (field-independent basis, Debye-Ang):
   XX=           -379.8134   YY=           -324.1819   ZZ=           -325.9330
   XY=            -22.2063   XZ=            -10.6755   YZ=             -7.7629

 Normal termination of Gaussian 16 at Sun Apr 27 04:08:04 2025.
