 Gaussian 16, Revision A.03,
 Gaussian 16:  ES64L-G16RevA.03 25-Dec-2016

 ----------------------------------------------------------------------
 # irc=(maxpoints=100,recorrect=never,calcfc,maxcycles=500,nogradstop)
 MN15/gen scrf=(smd,solvent=DiChloroEthane)
 ----------------------------------------------------------------------

 -----------------------------------------------------------
 IRC for Going from i2 to i3, where we are forming bond 1-44
 -----------------------------------------------------------
 Symbolic Z-matrix:
 Charge =  0 Multiplicity = 1

 SCF Done:  E(RMN15) =  -4781.69717900     A.U. after   15 cycles
 SCF Done:  E(RMN15) =  -4781.69749300     A.U. after   11 cycles
 SCF Done:  E(RMN15) =  -4781.69837576     A.U. after   11 cycles
 SCF Done:  E(RMN15) =  -4781.69964207     A.U. after   11 cycles
 SCF Done:  E(RMN15) =  -4781.70110637     A.U. after   11 cycles
 SCF Done:  E(RMN15) =  -4781.70261182     A.U. after   11 cycles
 SCF Done:  E(RMN15) =  -4781.70404948     A.U. after   11 cycles
 SCF Done:  E(RMN15) =  -4781.70535084     A.U. after   11 cycles
 SCF Done:  E(RMN15) =  -4781.70648120     A.U. after   11 cycles
 SCF Done:  E(RMN15) =  -4781.70743003     A.U. after   11 cycles
 SCF Done:  E(RMN15) =  -4781.69748593     A.U. after   15 cycles
 SCF Done:  E(RMN15) =  -4781.69834818     A.U. after   11 cycles
 SCF Done:  E(RMN15) =  -4781.69962288     A.U. after   12 cycles
 SCF Done:  E(RMN15) =  -4781.70107576     A.U. after   12 cycles
 SCF Done:  E(RMN15) =  -4781.70237966     A.U. after   12 cycles
 SCF Done:  E(RMN15) =  -4781.70319041     A.U. after   12 cycles
 SCF Done:  E(RMN15) =  -4781.70344762     A.U. after   11 cycles
 SCF Done:  E(RMN15) =  -4781.70359152     A.U. after   10 cycles
 SCF Done:  E(RMN15) =  -4781.70352905     A.U. after   12 cycles
 SCF Done:  E(RMN15) =  -4781.70331951     A.U. after   11 cycles

                          Input orientation:
 ---------------------------------------------------------------------
 Center     Atomic      Atomic             Coordinates (Angstroms)
 Number     Number       Type             X           Y           Z
 ---------------------------------------------------------------------
      1          6           0       -1.989672   -0.310766    0.968397
      2          6           0       -1.544493    0.101098   -0.426814
      3          6           0       -0.863884   -0.335602    1.998624
      4          8           0        0.310056   -0.539504    1.666793
      5          8           0       -0.362550    0.053434   -0.784622
      6          8           0        3.301568   -0.954386    0.975381
      7          8           0        2.453317   -0.381509   -1.809110
      8          8           0        0.318688    2.047630    0.900379
      9         16           0        1.053162    2.965070   -0.012988
     10         16           0        3.831887    0.160539    1.826524
     11         16           0        2.179431   -1.859607   -1.780954
     12          8           0        1.914244    2.066836   -0.855457
     13          8           0        1.662472    4.148435    0.535495
     14          8           0        2.787850    1.221151    1.691597
     15          8           0        4.330896   -0.158284    3.135094
     16          8           0        1.427178   -2.060175   -0.511127
     17          8           0        1.654458   -2.460595   -2.979694
     18          6           0        3.857592   -2.641915   -1.508775
     19          6           0        5.239794    0.799788    0.828123
     20          6           0       -0.245139    3.568189   -1.188590
     21          9           0        3.806438   -3.437057   -0.460839
     22          9           0        4.768837   -1.708333   -1.322909
     23          9           0        4.164904   -3.344851   -2.581703
     24          9           0        4.790421    1.083578   -0.382098
     25          9           0        6.175678   -0.124970    0.753538
     26          9           0        5.725025    1.887262    1.391374
     27          9           0       -1.373308    3.737850   -0.516435
     28          9           0       -0.438398    2.682893   -2.147502
     29          9           0        0.134224    4.714538   -1.713639
     30          6           0       -4.688230    0.025277    1.186125
     31          6           0       -4.760472   -1.531723    1.253908
     32          6           0       -6.084758   -2.072037    0.879020
     33          6           0       -4.567228   -1.899614    2.684760
     34          6           0       -1.393068   -2.731793    0.146978
     35          6           0       -3.107323   -3.063593   -1.521108
     36          6           0       -1.739122   -3.221425   -1.056341
     37          1           0       -0.392949   -2.863811    0.557965
     38          1           0       -3.411850   -3.403305   -2.513656
     39          1           0       -1.018760   -3.766061   -1.671512
     40          7           0       -7.140639   -2.490036    0.660433
     41          7           0       -4.398787   -2.139249    3.804521
     42          7           0       -3.705128   -2.170847    0.475738
     43          7           0       -4.036709   -2.575752   -0.770130
     44          6           0       -2.368524   -1.933822    0.935784
     45          1           0       -2.314605   -2.204229    1.996364
     46          6           0       -3.225355    0.470472    1.495573
     47          1           0       -3.115821    1.528466    1.211804
     48          1           0       -3.157916    0.457761    2.587851
     49         21           0        1.569622    0.146501    0.114295
     50          1           0       -5.252446    0.371803    2.066715
     51          6           0       -5.381363    0.710524    0.015447
     52          6           0       -5.596759    2.090694    0.161958
     53          6           0       -5.825929    0.089515   -1.158098
     54          6           0       -6.220468    2.833574   -0.839362
     55          1           0       -5.273442    2.587913    1.081834
     56          6           0       -6.456437    0.832203   -2.161664
     57          1           0       -5.660567   -0.976492   -1.322472
     58          6           0       -6.653719    2.204082   -2.009999
     59          1           0       -6.378202    3.905596   -0.700584
     60          1           0       -6.789336    0.325956   -3.070388
     61          1           0       -7.145963    2.780663   -2.796226
     62          6           0       -1.159718   -0.226064    3.454299
     63          1           0       -1.338819    0.840504    3.676296
     64          1           0       -2.061138   -0.782088    3.751367
     65          1           0       -0.283815   -0.563849    4.019217
     66          6           0       -2.552242    0.547468   -1.420152
     67          1           0       -3.395447   -0.154004   -1.464498
     68          1           0       -2.966739    1.519705   -1.101883
     69          1           0       -2.079706    0.645428   -2.403217
 ---------------------------------------------------------------------

 Alpha  occ. eigenvalues -- -160.21988 -88.06751 -88.06174 -88.06081 -24.34549
 Alpha  occ. eigenvalues --  -24.34446 -24.34413 -24.34388 -24.34378 -24.34205
 Alpha  occ. eigenvalues --  -24.33873 -24.33809 -24.33772 -18.87514 -18.87450
 Alpha  occ. eigenvalues --  -18.85436 -18.85302 -18.84848 -18.84805 -18.84398
 Alpha  occ. eigenvalues --  -18.84369 -18.84337 -18.83642 -18.83491 -17.20544
 Alpha  occ. eigenvalues --  -14.50683 -14.50657 -14.50628 -14.19729 -14.16349
 Alpha  occ. eigenvalues --  -14.14363 -14.13495 -10.34001 -10.33713 -10.33614
 Alpha  occ. eigenvalues --  -10.20862 -10.20582 -10.20475 -10.15436 -10.13515
 Alpha  occ. eigenvalues --  -10.12996 -10.12628 -10.11015 -10.10415 -10.09451
 Alpha  occ. eigenvalues --  -10.08513 -10.07867 -10.07819 -10.07296 -10.06904
 Alpha  occ. eigenvalues --  -10.06264 -10.06131 -10.06100 -10.05997 -10.05899
 Alpha  occ. eigenvalues --   -7.96595  -7.95967  -7.95921  -6.16114  -6.16066
 Alpha  occ. eigenvalues --   -6.15929  -6.15493  -6.15445  -6.15433  -6.15388
 Alpha  occ. eigenvalues --   -6.15325  -6.15260  -2.16790  -1.41422  -1.41279
 Alpha  occ. eigenvalues --   -1.41067  -1.38253  -1.38140  -1.37718  -1.28244
 Alpha  occ. eigenvalues --   -1.28237  -1.28113  -1.28068  -1.27674  -1.27571
 Alpha  occ. eigenvalues --   -1.21196  -1.20367  -1.20113  -1.14136  -1.12336
 Alpha  occ. eigenvalues --   -1.10454  -1.08338  -1.07377  -1.07174  -1.05989
 Alpha  occ. eigenvalues --   -1.05332  -1.05254  -0.98905  -0.96592  -0.94651
 Alpha  occ. eigenvalues --   -0.90956  -0.90653  -0.87133  -0.84876  -0.81901
 Alpha  occ. eigenvalues --   -0.80884  -0.80700  -0.80171  -0.79685  -0.78885
 Alpha  occ. eigenvalues --   -0.78432  -0.76140  -0.73836  -0.72606  -0.72338
 Alpha  occ. eigenvalues --   -0.71954  -0.71578  -0.68371  -0.68179  -0.68118
 Alpha  occ. eigenvalues --   -0.68096  -0.67989  -0.67611  -0.67581  -0.65791
 Alpha  occ. eigenvalues --   -0.65247  -0.64070  -0.63698  -0.63171  -0.63086
 Alpha  occ. eigenvalues --   -0.62373  -0.61753  -0.61214  -0.59917  -0.58627
 Alpha  occ. eigenvalues --   -0.58270  -0.57805  -0.57095  -0.56612  -0.56398
 Alpha  occ. eigenvalues --   -0.56197  -0.55875  -0.55557  -0.55458  -0.55216
 Alpha  occ. eigenvalues --   -0.55111  -0.55074  -0.54836  -0.54389  -0.54246
 Alpha  occ. eigenvalues --   -0.54099  -0.53729  -0.53552  -0.53449  -0.52745
 Alpha  occ. eigenvalues --   -0.52671  -0.52296  -0.52166  -0.51964  -0.51912
 Alpha  occ. eigenvalues --   -0.51751  -0.51513  -0.51161  -0.50743  -0.50422
 Alpha  occ. eigenvalues --   -0.50153  -0.49462  -0.49448  -0.48880  -0.48581
 Alpha  occ. eigenvalues --   -0.48079  -0.47867  -0.47568  -0.46934  -0.46922
 Alpha  occ. eigenvalues --   -0.46081  -0.45950  -0.45859  -0.45485  -0.45025
 Alpha  occ. eigenvalues --   -0.44739  -0.44534  -0.44154  -0.44011  -0.43364
 Alpha  occ. eigenvalues --   -0.43127  -0.42860  -0.42498  -0.42289  -0.42194
 Alpha  occ. eigenvalues --   -0.41792  -0.41535  -0.41458  -0.41257  -0.40613
 Alpha  occ. eigenvalues --   -0.40384  -0.39926  -0.39763  -0.39724  -0.39644
 Alpha  occ. eigenvalues --   -0.39225  -0.38507  -0.38276  -0.38058  -0.37955
 Alpha  occ. eigenvalues --   -0.37795  -0.37446  -0.36996  -0.36635  -0.36276
 Alpha  occ. eigenvalues --   -0.35362  -0.34385  -0.33974  -0.29599  -0.29013
 Alpha  occ. eigenvalues --   -0.26755
 Alpha virt. eigenvalues --   -0.06021  -0.05980  -0.03993  -0.02140  -0.00970
 Alpha virt. eigenvalues --   -0.00499   0.00245   0.00523   0.00633   0.01425
 Alpha virt. eigenvalues --    0.01723   0.03969   0.04981   0.05853   0.06856

 Mulliken charges:
               1
     1  C   -0.252179
     2  C    0.079362
     3  C    0.089757
     4  O   -0.222322
     5  O   -0.201781
     6  O   -0.436012
     7  O   -0.439331
     8  O   -0.443843
     9  S    0.894698
    10  S    0.864227
    11  S    0.869482
    12  O   -0.442789
    13  O   -0.394074
    14  O   -0.429934
    15  O   -0.383435
    16  O   -0.434196
    17  O   -0.398969
    18  C    0.445564
    19  C    0.447187
    20  C    0.424469
    21  F   -0.115647
    22  F   -0.112729
    23  F   -0.122279
    24  F   -0.102006
    25  F   -0.117856
    26  F   -0.117949
    27  F   -0.128047
    28  F   -0.112998
    29  F   -0.117425
    30  C    0.105173
    31  C   -0.143357
    32  C   -0.183935
    33  C   -0.166454
    34  C    0.017880
    35  C    0.006250
    36  C    0.023575
    37  H    0.062712
    38  H    0.051778
    39  H    0.033072
    40  N    0.148301
    41  N    0.110476
    42  N   -0.175387
    43  N   -0.015305
    44  C    0.142999
    45  H    0.070105
    46  C    0.157017
    47  H    0.048704
    48  H    0.036511
    49  Sc   0.301559
    50  H    0.072841
    51  C   -0.035156
    52  C   -0.028178
    53  C    0.020735
    54  C    0.006380
    55  H    0.008756
    56  C    0.001339
    57  H   -0.003264
    58  C    0.008573
    59  H    0.011808
    60  H    0.008647
    61  H    0.013247
    62  C    0.121353
    63  H    0.104766
    64  H    0.057499
    65  H    0.073526
    66  C    0.175190
    67  H    0.022031
    68  H    0.067910
    69  H    0.071383
 Sum of Mulliken charges =  -0.00000

 Dipole moment (field-independent basis, Debye):
    X=            -11.3770    Y=              0.4937    Z=              0.5378  Tot=             11.4004
 Quadrupole moment (field-independent basis, Debye-Ang):
   XX=           -349.9759   YY=           -330.7021   ZZ=           -322.5477
   XY=            -34.4838   XZ=              1.2556   YZ=              1.9831

  Exact polarizability:   0.000   0.000   0.000   0.000   0.000   0.000
 Approx polarizability: 470.936  -4.238 456.260  35.674  28.260 498.193

 Normal termination of Gaussian 16 at Tue Mar  4 09:32:53 2025.
