 Gaussian 16, Revision A.03,
 Gaussian 16:  ES64L-G16RevA.03 25-Dec-2016

 ----------------------------------------------------------------------
 #P MN15/gen scf=(maxcyc=500) opt=(modred) scrf=(smd,solvent=DiChloroEt
 hane)
 ----------------------------------------------------------------------

 ---
 Opt
 ---
 Symbolic Z-matrix:
 Charge =  0 Multiplicity = 1

 SCF Done:  E(RMN15) =  -4931.87698520     A.U. after   15 cycles
 SCF Done:  E(RMN15) =  -4931.87564985     A.U. after   16 cycles
 SCF Done:  E(RMN15) =  -4931.88633014     A.U. after   13 cycles
 SCF Done:  E(RMN15) =  -4931.88328447     A.U. after   15 cycles
 SCF Done:  E(RMN15) =  -4931.88853676     A.U. after   12 cycles
 SCF Done:  E(RMN15) =  -4931.88994126     A.U. after   12 cycles
 SCF Done:  E(RMN15) =  -4931.88733674     A.U. after   15 cycles
 SCF Done:  E(RMN15) =  -4931.89103138     A.U. after   11 cycles
 SCF Done:  E(RMN15) =  -4931.88982715     A.U. after   12 cycles
 SCF Done:  E(RMN15) =  -4931.89213239     A.U. after   12 cycles
 SCF Done:  E(RMN15) =  -4931.89862234     A.U. after    8 cycles
 SCF Done:  E(RMN15) =  -4931.89862439     A.U. after    8 cycles
 SCF Done:  E(RMN15) =  -4931.89862552     A.U. after    8 cycles
 SCF Done:  E(RMN15) =  -4931.89862642     A.U. after    8 cycles
 SCF Done:  E(RMN15) =  -4931.89862719     A.U. after    7 cycles
 SCF Done:  E(RMN15) =  -4931.89862780     A.U. after    8 cycles
 SCF Done:  E(RMN15) =  -4931.89862816     A.U. after    7 cycles
 SCF Done:  E(RMN15) =  -4931.89862840     A.U. after    7 cycles
 SCF Done:  E(RMN15) =  -4931.89862864     A.U. after    7 cycles
 SCF Done:  E(RMN15) =  -4931.89862873     A.U. after    7 cycles
 Optimization completed.
    -- Stationary point found.

                         Standard orientation:
 ---------------------------------------------------------------------
 Center     Atomic      Atomic             Coordinates (Angstroms)
 Number     Number       Type             X           Y           Z
 ---------------------------------------------------------------------
      1          6           0        5.375387    0.776756    0.609565
      2          6           0        6.061443    0.279314    1.754981
      3          6           0        7.258594    0.850167    2.150173
      4          6           0        7.784247    1.919428    1.410592
      5          6           0        7.122622    2.428761    0.280148
      6          6           0        5.923433    1.869719   -0.121078
      7          6           0        1.880002    0.298752   -0.633520
      8          6           0        1.365014    1.077946    0.428329
      9          6           0        1.002330   -0.439464   -1.456379
     10          1           0        5.632352   -0.566943    2.296211
     11          1           0        7.791984    0.473083    3.023762
     12          1           0        8.729454    2.370658    1.722025
     13          1           0        7.552866    3.265930   -0.271258
     14          1           0        5.395475    2.269882   -0.988035
     15          8           0       -0.232887   -0.607569   -1.250303
     16          8           0        0.154037    1.303441    0.692546
     17          8           0        2.292219    1.642419    1.198878
     18          8           0        1.549538   -1.014375   -2.523445
     19          6           0        1.860439    2.422835    2.311683
     20          6           0        0.684061   -1.564106   -3.514601
     21          1           0        2.766992    2.705638    2.857925
     22          1           0        1.194701    1.833749    2.957548
     23          1           0        1.331457    3.321544    1.969776
     24          1           0        1.331964   -2.077637   -4.234344
     25          1           0        0.128968   -0.758179   -4.016513
     26          1           0       -0.035703   -2.267537   -3.074715
     27          8           0       -2.912060   -1.335304   -0.205874
     28          8           0       -2.500766    0.720895    1.829531
     29          8           0       -0.779926    1.986893   -1.837373
     30         16           0       -1.585699    3.113568   -1.305563
     31         16           0       -3.689676   -0.931092   -1.417088
     32         16           0       -1.811467   -0.388112    2.567198
     33          8           0       -2.362156    2.548122   -0.154510
     34          8           0       -2.304581    3.948127   -2.235687
     35          8           0       -3.050307    0.342349   -1.862934
     36          8           0       -3.975214   -1.938149   -2.405304
     37          8           0       -0.900887   -1.023394    1.584537
     38          8           0       -1.285145   -0.072950    3.874028
     39          6           0       -3.170470   -1.638030    2.865421
     40          6           0       -5.303715   -0.380602   -0.727959
     41          6           0       -0.344696    4.243881   -0.479212
     42          9           0       -2.820939   -2.807545    2.358816
     43          9           0       -4.296465   -1.235811    2.310477
     44          9           0       -3.350454   -1.768406    4.167378
     45          9           0       -5.084646    0.582970    0.148912
     46          9           0       -5.899917   -1.397529   -0.135092
     47          9           0       -6.065760    0.073307   -1.705048
     48          9           0        0.882231    3.774493   -0.647140
     49          9           0       -0.602538    4.332305    0.812606
     50          9           0       -0.423497    5.443526   -1.023041
     51          6           0        4.178996    0.141687    0.239218
     52          1           0        3.830606   -0.670402    0.892126
     53          6           0        3.829639   -3.102242   -1.218199
     54          6           0        4.952781   -2.845559   -0.412014
     55          6           0        3.918748   -3.172501   -2.620660
     56          6           0        0.298064   -3.956167   -0.652179
     57          6           0        1.343501   -3.090088    1.294326
     58          6           0        0.186764   -3.584391    0.677523
     59          1           0       -0.544495   -4.355198   -1.218419
     60          1           0        1.338288   -2.770742    2.338325
     61          1           0       -0.751219   -3.643329    1.225591
     62          7           0        5.902343   -2.618641    0.228863
     63          7           0        3.963954   -3.222859   -3.786613
     64          7           0        2.579932   -3.305850   -0.603628
     65          7           0        2.501892   -2.948502    0.673320
     66         21           0       -1.571008    0.494571   -0.150807
     67          6           0        3.351212    0.397566   -0.941462
     68          1           0        3.633289    1.323640   -1.464411
     69          1           0        3.613333   -0.432362   -1.632333
     70          6           0        1.528284   -3.820084   -1.281130
     71          1           0        1.706342   -4.107963   -2.317572
 ---------------------------------------------------------------------

 The electronic state is 1-A.
 Alpha  occ. eigenvalues -- -160.19661 -88.05932 -88.05056 -88.05026 -24.33930
 Alpha  occ. eigenvalues --  -24.33864 -24.33816 -24.33712 -24.33582 -24.33495
 Alpha  occ. eigenvalues --  -24.33415 -24.33340 -24.33278 -18.87691 -18.87324
 Alpha  occ. eigenvalues --  -18.84387 -18.84319 -18.83568 -18.83506 -18.83502
 Alpha  occ. eigenvalues --  -18.83223 -18.83029 -18.83014 -18.82954 -18.82517
 Alpha  occ. eigenvalues --  -18.82441 -17.18237 -14.48392 -14.48359 -14.48280
 Alpha  occ. eigenvalues --  -14.27137 -14.17756 -14.10650 -14.10469 -10.33285
 Alpha  occ. eigenvalues --  -10.32841 -10.32796 -10.20572 -10.20560 -10.15451
 Alpha  occ. eigenvalues --  -10.13934 -10.12741 -10.12622 -10.10772 -10.10751
 Alpha  occ. eigenvalues --  -10.10747 -10.10643 -10.10525 -10.10106 -10.10006
 Alpha  occ. eigenvalues --  -10.09963 -10.09770 -10.09559 -10.08762 -10.08221
 Alpha  occ. eigenvalues --  -10.08114 -10.06042  -7.95742  -7.94823  -7.94817
 Alpha  occ. eigenvalues --   -6.15256  -6.15216  -6.15092  -6.14342  -6.14332
 Alpha  occ. eigenvalues --   -6.14284  -6.14280  -6.14196  -6.14193  -2.14574
 Alpha  occ. eigenvalues --   -1.39258  -1.39037  -1.38901  -1.37645  -1.37299
 Alpha  occ. eigenvalues --   -1.37162  -1.27646  -1.27615  -1.27253  -1.27195
 Alpha  occ. eigenvalues --   -1.27131  -1.27015  -1.20212  -1.19194  -1.18966
 Alpha  occ. eigenvalues --   -1.15986  -1.15379  -1.14501  -1.07310  -1.06365
 Alpha  occ. eigenvalues --   -1.05936  -1.05811  -1.05124  -1.05014  -1.04242
 Alpha  occ. eigenvalues --   -1.04152  -0.96042  -0.93942  -0.93544  -0.93047
 Alpha  occ. eigenvalues --   -0.89688  -0.89029  -0.84407  -0.81984  -0.81505
 Alpha  occ. eigenvalues --   -0.79993  -0.79027  -0.78931  -0.78907  -0.78320
 Alpha  occ. eigenvalues --   -0.75481  -0.73781  -0.72657  -0.71962  -0.71380
 Alpha  occ. eigenvalues --   -0.71272  -0.70333  -0.67626  -0.67546  -0.67329
 Alpha  occ. eigenvalues --   -0.67182  -0.67150  -0.67121  -0.67025  -0.65198
 Alpha  occ. eigenvalues --   -0.63873  -0.63222  -0.62825  -0.62760  -0.61966
 Alpha  occ. eigenvalues --   -0.61225  -0.60940  -0.59431  -0.59007  -0.58621
 Alpha  occ. eigenvalues --   -0.57509  -0.57148  -0.56836  -0.56279  -0.56078
 Alpha  occ. eigenvalues --   -0.55971  -0.55904  -0.55643  -0.55076  -0.54874
 Alpha  occ. eigenvalues --   -0.54818  -0.54712  -0.54624  -0.54382  -0.54078
 Alpha  occ. eigenvalues --   -0.54053  -0.53844  -0.53483  -0.53210  -0.53083
 Alpha  occ. eigenvalues --   -0.52734  -0.52548  -0.52507  -0.52214  -0.51682
 Alpha  occ. eigenvalues --   -0.51368  -0.51240  -0.51091  -0.51059  -0.50764
 Alpha  occ. eigenvalues --   -0.50611  -0.49810  -0.48986  -0.48937  -0.48917
 Alpha  occ. eigenvalues --   -0.48709  -0.48456  -0.48010  -0.47181  -0.46839
 Alpha  occ. eigenvalues --   -0.46584  -0.46242  -0.45191  -0.44942  -0.44638
 Alpha  occ. eigenvalues --   -0.44535  -0.44406  -0.43845  -0.43464  -0.42627
 Alpha  occ. eigenvalues --   -0.42319  -0.42146  -0.41853  -0.41742  -0.41580
 Alpha  occ. eigenvalues --   -0.40984  -0.40511  -0.40426  -0.40086  -0.39868
 Alpha  occ. eigenvalues --   -0.39645  -0.39312  -0.39256  -0.38991  -0.38653
 Alpha  occ. eigenvalues --   -0.38607  -0.38245  -0.38012  -0.37942  -0.37506
 Alpha  occ. eigenvalues --   -0.37368  -0.37087  -0.36819  -0.36360  -0.36174
 Alpha  occ. eigenvalues --   -0.36086  -0.35750  -0.35690  -0.35079  -0.34872
 Alpha  occ. eigenvalues --   -0.33836  -0.32275  -0.26648  -0.24684
 Alpha virt. eigenvalues --   -0.12256  -0.06958  -0.03453  -0.01788  -0.00792
 Alpha virt. eigenvalues --   -0.00283   0.01131   0.01569   0.01813   0.02220
 Alpha virt. eigenvalues --    0.03660   0.06087   0.06689   0.07372   0.08141

 Mulliken charges:
               1
     1  C    0.029214
     2  C    0.068625
     3  C    0.017857
     4  C    0.071489
     5  C    0.010403
     6  C    0.062680
     7  C   -0.270983
     8  C    0.309356
     9  C    0.280188
    10  H    0.037005
    11  H    0.037920
    12  H    0.053761
    13  H    0.037119
    14  H    0.037753
    15  O   -0.310034
    16  O   -0.306073
    17  O   -0.294826
    18  O   -0.285099
    19  C    0.174070
    20  C    0.157696
    21  H    0.056361
    22  H    0.051481
    23  H    0.040029
    24  H    0.049098
    25  H    0.071968
    26  H    0.046629
    27  O   -0.433885
    28  O   -0.444968
    29  O   -0.421755
    30  S    0.885643
    31  S    0.869750
    32  S    0.864902
    33  O   -0.442226
    34  O   -0.408141
    35  O   -0.431134
    36  O   -0.399489
    37  O   -0.436174
    38  O   -0.418167
    39  C    0.432627
    40  C    0.436198
    41  C    0.425510
    42  F   -0.121142
    43  F   -0.116216
    44  F   -0.127708
    45  F   -0.106364
    46  F   -0.123592
    47  F   -0.123909
    48  F   -0.125044
    49  F   -0.115448
    50  F   -0.123944
    51  C    0.019164
    52  H    0.061322
    53  C   -0.312071
    54  C   -0.132477
    55  C   -0.143853
    56  C    0.038148
    57  C    0.043912
    58  C    0.105690
    59  H    0.073764
    60  H    0.066402
    61  H    0.040096
    62  N    0.050905
    63  N    0.041501
    64  N   -0.013965
    65  N   -0.041858
    66  Sc   0.242860
    67  C    0.279819
    68  H    0.072536
    69  H    0.081759
    70  C    0.120190
    71  H    0.077148
 Sum of Mulliken charges =  -0.00000

 Dipole moment (field-independent basis, Debye):
    X=             19.2949    Y=             -1.8280    Z=              5.9899  Tot=             20.2858
 Quadrupole moment (field-independent basis, Debye-Ang):
   XX=           -287.8096   YY=           -316.2103   ZZ=           -348.7717
   XY=             67.4928   XZ=             24.5796   YZ=              3.5928

 Normal termination of Gaussian 16 at Mon Apr 28 17:20:19 2025.
