 Gaussian 16, Revision A.03,
 Gaussian 16:  ES64L-G16RevA.03 25-Dec-2016

 ----------------------------------------------------------------------
 #P UMN15/genecp scf=(maxcyc=500) opt scrf=(smd,solvent=DiChloroEthane)
 ----------------------------------------------------------------------

 ---
 Opt
 ---
 Symbolic Z-matrix:
 Charge =  0 Multiplicity = 1

 SCF Done:  E(UMN15) =  -5446.20823515     A.U. after   19 cycles
 SCF Done:  E(UMN15) =  -5446.19363125     A.U. after   14 cycles
 SCF Done:  E(UMN15) =  -5446.19698769     A.U. after   14 cycles
 SCF Done:  E(UMN15) =  -5446.20825088     A.U. after    9 cycles
 SCF Done:  E(UMN15) =  -5446.20207076     A.U. after   14 cycles
 SCF Done:  E(UMN15) =  -5446.20702152     A.U. after   12 cycles
 SCF Done:  E(UMN15) =  -5446.20832070     A.U. after    7 cycles
 SCF Done:  E(UMN15) =  -5446.20603665     A.U. after   14 cycles
 SCF Done:  E(UMN15) =  -5446.20869404     A.U. after   13 cycles
 SCF Done:  E(UMN15) =  -5446.20724293     A.U. after   14 cycles
 SCF Done:  E(UMN15) =  -5446.21056903     A.U. after    8 cycles
 SCF Done:  E(UMN15) =  -5446.21057315     A.U. after    8 cycles
 SCF Done:  E(UMN15) =  -5446.21057712     A.U. after    9 cycles
 SCF Done:  E(UMN15) =  -5446.21057811     A.U. after    7 cycles
 SCF Done:  E(UMN15) =  -5446.21058040     A.U. after    9 cycles
 SCF Done:  E(UMN15) =  -5446.21058105     A.U. after    7 cycles
 SCF Done:  E(UMN15) =  -5446.21058135     A.U. after    7 cycles
 SCF Done:  E(UMN15) =  -5446.21058167     A.U. after    7 cycles
 SCF Done:  E(UMN15) =  -5446.21058179     A.U. after    6 cycles
 SCF Done:  E(UMN15) =  -5446.21058185     A.U. after    6 cycles
 Optimization completed.
    -- Stationary point found.

                         Standard orientation:
 ---------------------------------------------------------------------
 Center     Atomic      Atomic             Coordinates (Angstroms)
 Number     Number       Type             X           Y           Z
 ---------------------------------------------------------------------
      1          6           0       -5.675200   -1.292913   -0.348994
      2          6           0       -6.830185   -1.243778    0.458757
      3          6           0       -8.050743   -1.648324   -0.068966
      4          6           0       -8.118218   -2.089115   -1.395378
      5          6           0       -6.973310   -2.127884   -2.206049
      6          6           0       -5.748365   -1.730976   -1.690993
      7          6           0       -2.067638   -0.605574   -0.335810
      8          6           0       -1.550651    0.083432    0.792515
      9          6           0       -1.276899   -0.894116   -1.492541
     10          1           0       -6.751719   -0.881060    1.486353
     11          1           0       -8.952097   -1.617788    0.545305
     12          1           0       -9.079215   -2.402913   -1.809306
     13          1           0       -7.048596   -2.466228   -3.240872
     14          1           0       -4.842718   -1.738060   -2.302476
     15          8           0       -0.069657   -0.572983   -1.610314
     16          8           0       -0.332656    0.304828    0.976560
     17          8           0       -2.440811    0.522782    1.666730
     18          8           0       -1.903693   -1.504128   -2.468813
     19          6           0       -1.948809    1.287359    2.774205
     20          6           0       -1.197972   -1.688218   -3.697143
     21          1           0       -2.831229    1.687289    3.284069
     22          1           0       -1.303110    2.101564    2.415012
     23          1           0       -1.372168    0.644968    3.452565
     24          1           0       -1.881444   -2.223974   -4.363441
     25          1           0       -0.286043   -2.278071   -3.533737
     26          1           0       -0.935447   -0.713787   -4.131281
     27          8           0        2.976773    0.065803   -1.811569
     28          8           0        2.601636    1.095926    1.291601
     29          8           0        0.340812   -2.472830    0.396190
     30         16           0        1.177995   -2.819714    1.578871
     31         16           0        3.609347   -1.286746   -1.903228
     32         16           0        2.147577    2.371410    0.653985
     33          8           0        2.039896   -1.621413    1.830519
     34          8           0        1.809300   -4.113921    1.611826
     35          8           0        2.807375   -2.149052   -0.983480
     36          8           0        3.938756   -1.797227   -3.206009
     37          8           0        1.367256    1.977454   -0.549380
     38          8           0        1.582967    3.375002    1.526924
     39          6           0        3.691730    3.128558   -0.007270
     40          6           0        5.183467   -1.050666   -0.982439
     41          6           0        0.000910   -2.832155    2.996893
     42          9           0        3.359264    4.062484   -0.881854
     43          9           0        4.438854    2.214912   -0.595080
     44          9           0        4.363554    3.674718    0.988831
     45          9           0        4.879976   -0.627924    0.237540
     46          9           0        5.925812   -0.147624   -1.591305
     47          9           0        5.837152   -2.192017   -0.906178
     48          9           0       -0.805065   -1.782268    2.938538
     49          9           0        0.680775   -2.798342    4.126699
     50          9           0       -0.720631   -3.935937    2.944559
     51          6           0       -4.436657   -0.861201    0.218862
     52          1           0       -4.382165   -0.459711    1.236585
     53          6           0       -4.076878    2.286783   -0.669765
     54          6           0       -5.308917    2.200441    0.011614
     55          6           0       -3.863787    1.637427   -1.899888
     56          6           0       -0.919457    4.094805   -0.135618
     57          6           0       -2.551727    4.606125    1.508168
     58          6           0       -1.271522    4.825613    0.991203
     59          1           0        0.061359    4.179585   -0.600765
     60          1           0       -2.905995    5.121531    2.403876
     61          1           0       -0.585180    5.525746    1.466188
     62          7           0       -6.339339    2.080659    0.546300
     63          7           0       -3.682807    1.078075   -2.909514
     64          7           0       -3.073888    3.105907   -0.123258
     65          7           0       -3.426868    3.773182    0.967322
     66          6           0       -1.841159    3.211497   -0.677494
     67          1           0       -1.637411    2.590026   -1.551322
     68         71           0        1.494450   -0.405630   -0.071880
     69          8           0       -3.382504   -0.956250   -0.484817
 ---------------------------------------------------------------------

 The electronic state is 1-A.
 Alpha  occ. eigenvalues --  -88.06189 -88.05986 -88.05691 -24.34426 -24.34391
 Alpha  occ. eigenvalues --  -24.34139 -24.34123 -24.34025 -24.33998 -24.33989
 Alpha  occ. eigenvalues --  -24.33980 -24.33902 -18.95302 -18.89263 -18.88156
 Alpha  occ. eigenvalues --  -18.84658 -18.84618 -18.84526 -18.84440 -18.84136
 Alpha  occ. eigenvalues --  -18.84132 -18.84078 -18.83927 -18.83739 -18.83419
 Alpha  occ. eigenvalues --  -18.82874 -17.81679 -14.27447 -14.17632 -14.11039
 Alpha  occ. eigenvalues --  -14.10363 -11.56534 -11.56527 -11.56489 -10.33561
 Alpha  occ. eigenvalues --  -10.33419 -10.33405 -10.22657 -10.22236 -10.19876
 Alpha  occ. eigenvalues --  -10.14011 -10.13699 -10.13025 -10.12860 -10.11579
 Alpha  occ. eigenvalues --  -10.11057 -10.10837 -10.10713 -10.10632 -10.09662
 Alpha  occ. eigenvalues --  -10.09051 -10.08733 -10.08476 -10.08266 -10.07289
 Alpha  occ. eigenvalues --  -10.07248  -7.96030  -7.95793  -7.95498  -6.15543
 Alpha  occ. eigenvalues --   -6.15498  -6.15382  -6.15314  -6.15262  -6.15149
 Alpha  occ. eigenvalues --   -6.15016  -6.14967  -6.14865  -5.41548  -5.41513
 Alpha  occ. eigenvalues --   -5.41509  -5.41490  -5.41450  -2.34692  -1.37982
 Alpha  occ. eigenvalues --   -1.37885  -1.37767  -1.28004  -1.27973  -1.27882
 Alpha  occ. eigenvalues --   -1.27806  -1.27745  -1.27701  -1.24347  -1.24202
 Alpha  occ. eigenvalues --   -1.23268  -1.21316  -1.20100  -1.19140  -1.18410
 Alpha  occ. eigenvalues --   -1.17059  -1.16525  -1.14716  -1.07837  -1.07048
 Alpha  occ. eigenvalues --   -1.06860  -1.06394  -1.06268  -1.05401  -1.05214
 Alpha  occ. eigenvalues --   -1.04818  -0.96147  -0.93647  -0.93269  -0.92904
 Alpha  occ. eigenvalues --   -0.89769  -0.89006  -0.82312  -0.82168  -0.80461
 Alpha  occ. eigenvalues --   -0.80345  -0.80312  -0.80025  -0.79955  -0.76924
 Alpha  occ. eigenvalues --   -0.75607  -0.72888  -0.72728  -0.72344  -0.72139
 Alpha  occ. eigenvalues --   -0.72010  -0.68434  -0.67990  -0.67967  -0.67866
 Alpha  occ. eigenvalues --   -0.67726  -0.67682  -0.67557  -0.67291  -0.65376
 Alpha  occ. eigenvalues --   -0.64868  -0.63456  -0.63048  -0.62736  -0.62520
 Alpha  occ. eigenvalues --   -0.62013  -0.61761  -0.61447  -0.61322  -0.61225
 Alpha  occ. eigenvalues --   -0.61209  -0.61108  -0.61023  -0.60996  -0.60565
 Alpha  occ. eigenvalues --   -0.59228  -0.58531  -0.58104  -0.57460  -0.57302
 Alpha  occ. eigenvalues --   -0.57014  -0.56809  -0.56584  -0.56206  -0.56089
 Alpha  occ. eigenvalues --   -0.56005  -0.55791  -0.55697  -0.55213  -0.55025
 Alpha  occ. eigenvalues --   -0.54919  -0.54779  -0.54214  -0.54130  -0.53977
 Alpha  occ. eigenvalues --   -0.53769  -0.53507  -0.53425  -0.53337  -0.53222
 Alpha  occ. eigenvalues --   -0.53155  -0.52095  -0.51738  -0.51578  -0.51556
 Alpha  occ. eigenvalues --   -0.51463  -0.51101  -0.51000  -0.50715  -0.49316
 Alpha  occ. eigenvalues --   -0.49265  -0.49174  -0.49023  -0.48283  -0.48047
 Alpha  occ. eigenvalues --   -0.47801  -0.47303  -0.46716  -0.45465  -0.45235
 Alpha  occ. eigenvalues --   -0.44984  -0.44738  -0.44527  -0.44238  -0.44068
 Alpha  occ. eigenvalues --   -0.43088  -0.42718  -0.42402  -0.42284  -0.41925
 Alpha  occ. eigenvalues --   -0.41712  -0.41286  -0.40873  -0.40361  -0.40287
 Alpha  occ. eigenvalues --   -0.40184  -0.40123  -0.39839  -0.39797  -0.39646
 Alpha  occ. eigenvalues --   -0.39452  -0.39241  -0.39145  -0.39046  -0.38871
 Alpha  occ. eigenvalues --   -0.37910  -0.37808  -0.37541  -0.37159  -0.36906
 Alpha  occ. eigenvalues --   -0.36645  -0.36475  -0.36352  -0.36077  -0.35951
 Alpha  occ. eigenvalues --   -0.35620  -0.33586  -0.31183  -0.27279  -0.24979
 Alpha virt. eigenvalues --   -0.09963  -0.07072  -0.03625  -0.01668  -0.00108
 Alpha virt. eigenvalues --    0.00986   0.03074   0.04970   0.06039   0.06383
 Alpha virt. eigenvalues --    0.06517   0.06705   0.06966   0.08234   0.08437

  Beta  occ. eigenvalues --  -88.06189 -88.05986 -88.05691 -24.34426 -24.34391
  Beta  occ. eigenvalues --  -24.34139 -24.34123 -24.34025 -24.33998 -24.33989
  Beta  occ. eigenvalues --  -24.33980 -24.33902 -18.95302 -18.89263 -18.88156
  Beta  occ. eigenvalues --  -18.84658 -18.84618 -18.84526 -18.84440 -18.84136
  Beta  occ. eigenvalues --  -18.84132 -18.84078 -18.83927 -18.83739 -18.83419
  Beta  occ. eigenvalues --  -18.82874 -17.81679 -14.27447 -14.17632 -14.11039
  Beta  occ. eigenvalues --  -14.10363 -11.56534 -11.56527 -11.56489 -10.33561
  Beta  occ. eigenvalues --  -10.33419 -10.33405 -10.22657 -10.22236 -10.19876
  Beta  occ. eigenvalues --  -10.14011 -10.13699 -10.13025 -10.12860 -10.11579
  Beta  occ. eigenvalues --  -10.11057 -10.10837 -10.10713 -10.10632 -10.09662
  Beta  occ. eigenvalues --  -10.09051 -10.08733 -10.08476 -10.08266 -10.07289
  Beta  occ. eigenvalues --  -10.07248  -7.96030  -7.95793  -7.95498  -6.15543
  Beta  occ. eigenvalues --   -6.15498  -6.15382  -6.15314  -6.15262  -6.15149
  Beta  occ. eigenvalues --   -6.15016  -6.14967  -6.14865  -5.41548  -5.41513
  Beta  occ. eigenvalues --   -5.41509  -5.41490  -5.41450  -2.34692  -1.37982
  Beta  occ. eigenvalues --   -1.37885  -1.37767  -1.28004  -1.27973  -1.27882
  Beta  occ. eigenvalues --   -1.27806  -1.27745  -1.27701  -1.24347  -1.24202
  Beta  occ. eigenvalues --   -1.23268  -1.21316  -1.20100  -1.19140  -1.18410
  Beta  occ. eigenvalues --   -1.17059  -1.16525  -1.14716  -1.07837  -1.07048
  Beta  occ. eigenvalues --   -1.06860  -1.06394  -1.06268  -1.05401  -1.05214
  Beta  occ. eigenvalues --   -1.04818  -0.96147  -0.93647  -0.93269  -0.92904
  Beta  occ. eigenvalues --   -0.89769  -0.89006  -0.82312  -0.82168  -0.80461
  Beta  occ. eigenvalues --   -0.80345  -0.80312  -0.80025  -0.79955  -0.76924
  Beta  occ. eigenvalues --   -0.75607  -0.72888  -0.72728  -0.72344  -0.72139
  Beta  occ. eigenvalues --   -0.72010  -0.68434  -0.67990  -0.67967  -0.67866
  Beta  occ. eigenvalues --   -0.67726  -0.67682  -0.67557  -0.67291  -0.65376
  Beta  occ. eigenvalues --   -0.64868  -0.63456  -0.63048  -0.62736  -0.62520
  Beta  occ. eigenvalues --   -0.62013  -0.61761  -0.61447  -0.61322  -0.61225
  Beta  occ. eigenvalues --   -0.61209  -0.61108  -0.61023  -0.60996  -0.60565
  Beta  occ. eigenvalues --   -0.59228  -0.58531  -0.58104  -0.57460  -0.57302
  Beta  occ. eigenvalues --   -0.57014  -0.56809  -0.56584  -0.56206  -0.56089
  Beta  occ. eigenvalues --   -0.56005  -0.55791  -0.55697  -0.55213  -0.55025
  Beta  occ. eigenvalues --   -0.54919  -0.54779  -0.54214  -0.54130  -0.53977
  Beta  occ. eigenvalues --   -0.53769  -0.53507  -0.53425  -0.53337  -0.53222
  Beta  occ. eigenvalues --   -0.53155  -0.52095  -0.51738  -0.51578  -0.51556
  Beta  occ. eigenvalues --   -0.51463  -0.51101  -0.51000  -0.50715  -0.49316
  Beta  occ. eigenvalues --   -0.49265  -0.49174  -0.49023  -0.48283  -0.48047
  Beta  occ. eigenvalues --   -0.47801  -0.47303  -0.46716  -0.45465  -0.45235
  Beta  occ. eigenvalues --   -0.44984  -0.44738  -0.44527  -0.44238  -0.44068
  Beta  occ. eigenvalues --   -0.43088  -0.42718  -0.42402  -0.42284  -0.41925
  Beta  occ. eigenvalues --   -0.41712  -0.41286  -0.40873  -0.40361  -0.40287
  Beta  occ. eigenvalues --   -0.40184  -0.40123  -0.39839  -0.39797  -0.39646
  Beta  occ. eigenvalues --   -0.39452  -0.39241  -0.39145  -0.39046  -0.38871
  Beta  occ. eigenvalues --   -0.37910  -0.37808  -0.37541  -0.37159  -0.36906
  Beta  occ. eigenvalues --   -0.36645  -0.36475  -0.36352  -0.36077  -0.35951
  Beta  occ. eigenvalues --   -0.35620  -0.33586  -0.31183  -0.27279  -0.24979
  Beta virt. eigenvalues --   -0.09963  -0.07072  -0.03625  -0.01668  -0.00108
  Beta virt. eigenvalues --    0.00986   0.03074   0.04970   0.06039   0.06383
  Beta virt. eigenvalues --    0.06517   0.06705   0.06966   0.08234   0.08437

 Mulliken charges and spin densities:
               1          2
     1  C   -0.019798   0.000000
     2  C    0.043473   0.000000
     3  C    0.011242   0.000000
     4  C    0.042961   0.000000
     5  C    0.010122   0.000000
     6  C    0.066098   0.000000
     7  C    0.015256   0.000000
     8  C    0.290267   0.000000
     9  C    0.296587   0.000000
    10  H    0.025575   0.000000
    11  H    0.028602   0.000000
    12  H    0.037594   0.000000
    13  H    0.029117   0.000000
    14  H    0.005736   0.000000
    15  O   -0.322058   0.000000
    16  O   -0.298376   0.000000
    17  O   -0.289508   0.000000
    18  O   -0.247085   0.000000
    19  C    0.172356   0.000000
    20  C    0.155809   0.000000
    21  H    0.066618   0.000000
    22  H    0.036511   0.000000
    23  H    0.066101   0.000000
    24  H    0.063610   0.000000
    25  H    0.069998   0.000000
    26  H    0.062197   0.000000
    27  O   -0.454130   0.000000
    28  O   -0.450336   0.000000
    29  O   -0.451170   0.000000
    30  S    0.864886   0.000000
    31  S    0.831796   0.000000
    32  S    0.839878   0.000000
    33  O   -0.459483   0.000000
    34  O   -0.410525   0.000000
    35  O   -0.455643   0.000000
    36  O   -0.397683   0.000000
    37  O   -0.446402   0.000000
    38  O   -0.414484   0.000000
    39  C    0.436102   0.000000
    40  C    0.437217   0.000000
    41  C    0.428256   0.000000
    42  F   -0.128291   0.000000
    43  F   -0.111905   0.000000
    44  F   -0.124854   0.000000
    45  F   -0.110183   0.000000
    46  F   -0.119117   0.000000
    47  F   -0.118042   0.000000
    48  F   -0.120124   0.000000
    49  F   -0.123423   0.000000
    50  F   -0.125463   0.000000
    51  C    0.227556   0.000000
    52  H    0.091221   0.000000
    53  C   -0.322994   0.000000
    54  C   -0.128172   0.000000
    55  C   -0.163168   0.000000
    56  C    0.048218   0.000000
    57  C    0.036280   0.000000
    58  C    0.079654   0.000000
    59  H    0.049521   0.000000
    60  H    0.074235   0.000000
    61  H    0.056393   0.000000
    62  N    0.058566   0.000000
    63  N    0.069454   0.000000
    64  N   -0.013067   0.000000
    65  N   -0.046494   0.000000
    66  C    0.128011   0.000000
    67  H    0.082284   0.000000
    68  Lu   0.542480   0.000000
    69  O   -0.105856   0.000000
 Sum of Mulliken charges =  -0.00000   0.00000

 Dipole moment (field-independent basis, Debye):
    X=            -15.2819    Y=              6.3823    Z=              2.1515  Tot=             16.7003
 Quadrupole moment (field-independent basis, Debye-Ang):
   XX=           -318.1524   YY=           -320.9695   ZZ=           -331.1901
   XY=             42.7444   XZ=             -1.3075   YZ=             17.0726

 Normal termination of Gaussian 16 at Tue Apr 22 01:29:44 2025.
