 Gaussian 16, Revision A.03,
 Gaussian 16:  ES64L-G16RevA.03 25-Dec-2016

 ----------------------------------------------------------------------
 #P UMN15/genecp scf=(maxcyc=500) irc=(maxpoints=100,recorrect=never,ca
 lcfc,maxcycles=500,nogradstop) scrf=(smd,solvent=DiChloroEthane)
 ----------------------------------------------------------------------

 ---
 Opt
 ---
 Symbolic Z-matrix:
 Charge =  0 Multiplicity = 1

 SCF Done:  E(UMN15) =  -5446.20676953     A.U. after   19 cycles
 SCF Done:  E(UMN15) =  -5446.20715468     A.U. after   12 cycles
 SCF Done:  E(UMN15) =  -5446.20829464     A.U. after   12 cycles
 SCF Done:  E(UMN15) =  -5446.21007634     A.U. after   12 cycles
 SCF Done:  E(UMN15) =  -5446.21228518     A.U. after   12 cycles
 SCF Done:  E(UMN15) =  -5446.21459827     A.U. after   12 cycles
 SCF Done:  E(UMN15) =  -5446.21660018     A.U. after   11 cycles
 SCF Done:  E(UMN15) =  -5446.21790256     A.U. after   11 cycles
 SCF Done:  E(UMN15) =  -5446.21852549     A.U. after   11 cycles
 SCF Done:  E(UMN15) =  -5446.21886001     A.U. after   10 cycles
 SCF Done:  E(UMN15) =  -5446.22051834     A.U. after   11 cycles
 SCF Done:  E(UMN15) =  -5446.22076174     A.U. after   11 cycles
 SCF Done:  E(UMN15) =  -5446.22095963     A.U. after   10 cycles
 SCF Done:  E(UMN15) =  -5446.22108232     A.U. after   10 cycles
 SCF Done:  E(UMN15) =  -5446.22124058     A.U. after   11 cycles
 SCF Done:  E(UMN15) =  -5446.22136187     A.U. after   11 cycles
 SCF Done:  E(UMN15) =  -5446.22148804     A.U. after   11 cycles
 SCF Done:  E(UMN15) =  -5446.22156966     A.U. after   11 cycles
 SCF Done:  E(UMN15) =  -5446.22161891     A.U. after   11 cycles
 SCF Done:  E(UMN15) =  -5446.22147709     A.U. after   10 cycles

                          Input orientation:
 ---------------------------------------------------------------------
 Center     Atomic      Atomic             Coordinates (Angstroms)
 Number     Number       Type             X           Y           Z
 ---------------------------------------------------------------------
      1          6           0        5.849473   -0.627461    0.130858
      2          6           0        6.928897   -0.559401   -0.756677
      3          6           0        8.065021   -1.339510   -0.532305
      4          6           0        8.122989   -2.189399    0.575056
      5          6           0        7.043251   -2.261158    1.459606
      6          6           0        5.906012   -1.484555    1.238812
      7          6           0        2.198243   -0.161695    0.228536
      8          6           0        1.589753    0.085036   -1.021396
      9          6           0        1.455334   -0.159614    1.432163
     10          1           0        6.875187    0.099320   -1.627798
     11          1           0        8.903392   -1.289543   -1.230345
     12          1           0        9.010720   -2.802629    0.746033
     13          1           0        7.083379   -2.930289    2.321787
     14          1           0        5.048095   -1.548147    1.911703
     15          8           0        0.222528    0.100595    1.538205
     16          8           0        0.360545    0.306983   -1.203759
     17          8           0        2.416256    0.125614   -2.062452
     18          8           0        2.160311   -0.413142    2.519006
     19          6           0        1.872041    0.511595   -3.322955
     20          6           0        1.485479   -0.395907    3.777465
     21          1           0        2.715539    0.556242   -4.021159
     22          1           0        1.386717    1.496172   -3.251551
     23          1           0        1.130935   -0.217748   -3.672872
     24          1           0        2.247613   -0.606907    4.535855
     25          1           0        0.699711   -1.169514    3.811383
     26          1           0        1.031527    0.589325    3.966819
     27          8           0       -3.107243    0.564489    1.478282
     28          8           0       -2.549473    0.965103   -1.552516
     29          8           0       -0.145011   -2.285660    0.096842
     30         16           0       -1.005262   -2.939826   -0.925829
     31         16           0       -3.555859   -0.775234    1.969834
     32         16           0       -2.282380    2.358887   -1.078187
     33          8           0       -1.901256   -1.863027   -1.457551
     34          8           0       -1.613043   -4.206320   -0.603592
     35          8           0       -2.535213   -1.736800    1.459084
     36          8           0       -3.974073   -0.886414    3.341634
     37          8           0       -1.403356    2.234775    0.115777
     38          8           0       -1.893676    3.332071   -2.073793
     39          6           0       -3.940151    2.933152   -0.432575
     40          6           0       -5.023393   -1.126499    0.919582
     41          6           0        0.136990   -3.313188   -2.321370
     42          9           0       -3.791330    3.433623    0.777746
     43          9           0       -4.792652    1.928114   -0.398574
     44          9           0       -4.404499    3.867852   -1.241358
     45          9           0       -4.657545   -1.014570   -0.348661
     46          9           0       -5.981470   -0.259803    1.183905
     47          9           0       -5.453955   -2.351540    1.149622
     48          9           0        0.936510   -2.282978   -2.545984
     49          9           0       -0.565914   -3.565713   -3.409646
     50          9           0        0.867029   -4.367617   -2.009782
     51          6           0        4.605007    0.197862   -0.102784
     52          1           0        4.528006    0.501339   -1.160666
     53          6           0        4.717909    1.588977    0.682209
     54          6           0        5.926087    2.296731    0.223721
     55          6           0        4.793202    1.353099    2.129787
     56          6           0        1.404549    3.363274    0.743938
     57          6           0        2.462842    3.405525   -1.402114
     58          6           0        1.338992    3.685898   -0.597498
     59          1           0        0.587295    3.569081    1.442157
     60          1           0        2.499268    3.679952   -2.456113
     61          1           0        0.447837    4.137922   -1.035161
     62          7           0        6.880775    2.825094   -0.159610
     63          7           0        4.870411    1.141236    3.264050
     64          7           0        3.535236    2.438884    0.330821
     65          7           0        3.526333    2.779372   -0.937139
     66          6           0        2.560547    2.735994    1.210279
     67          1           0        2.697210    2.429698    2.248279
     68         71           0       -1.368575   -0.192372    0.069947
     69          8           0        3.522850   -0.553786    0.327517
 ---------------------------------------------------------------------

 Alpha  occ. eigenvalues --  -88.05922 -88.05523 -88.05264 -24.34127 -24.33988
 Alpha  occ. eigenvalues --  -24.33945 -24.33895 -24.33667 -24.33616 -24.33512
 Alpha  occ. eigenvalues --  -24.33496 -24.33471 -18.87514 -18.87298 -18.86416
 Alpha  occ. eigenvalues --  -18.84434 -18.84327 -18.83962 -18.83738 -18.83648
 Alpha  occ. eigenvalues --  -18.83449 -18.83394 -18.83087 -18.83006 -18.82888
 Alpha  occ. eigenvalues --  -18.82432 -17.80996 -14.29867 -14.21710 -14.15608
 Alpha  occ. eigenvalues --  -14.15027 -11.55855 -11.55837 -11.55808 -10.33320
 Alpha  occ. eigenvalues --  -10.33100 -10.32985 -10.22929 -10.20502 -10.20461
 Alpha  occ. eigenvalues --  -10.18523 -10.16563 -10.15663 -10.14668 -10.14302
 Alpha  occ. eigenvalues --  -10.13566 -10.13176 -10.10832 -10.10733 -10.10559
 Alpha  occ. eigenvalues --  -10.07643 -10.06644 -10.06370 -10.06134 -10.06066
 Alpha  occ. eigenvalues --  -10.05990  -7.95762  -7.95338  -7.95064  -6.15274
 Alpha  occ. eigenvalues --   -6.15229  -6.15118  -6.14854  -6.14808  -6.14698
 Alpha  occ. eigenvalues --   -6.14584  -6.14532  -6.14434  -5.40859  -5.40833
 Alpha  occ. eigenvalues --   -5.40824  -5.40815  -5.40762  -2.34010  -1.37746
 Alpha  occ. eigenvalues --   -1.37541  -1.37351  -1.27755  -1.27728  -1.27540
 Alpha  occ. eigenvalues --   -1.27435  -1.27304  -1.27210  -1.23636  -1.23578
 Alpha  occ. eigenvalues --   -1.22596  -1.19662  -1.18809  -1.18473  -1.17877
 Alpha  occ. eigenvalues --   -1.16073  -1.15309  -1.11515  -1.07217  -1.06375
 Alpha  occ. eigenvalues --   -1.05902  -1.05566  -1.05160  -1.04878  -1.04642
 Alpha  occ. eigenvalues --   -1.04313  -1.00600  -0.97885  -0.96815  -0.93496
 Alpha  occ. eigenvalues --   -0.91112  -0.88391  -0.84308  -0.80345  -0.80070
 Alpha  occ. eigenvalues --   -0.79630  -0.79269  -0.79182  -0.78767  -0.78597
 Alpha  occ. eigenvalues --   -0.75757  -0.74716  -0.72063  -0.72008  -0.71804
 Alpha  occ. eigenvalues --   -0.71503  -0.68582  -0.67712  -0.67647  -0.67631
 Alpha  occ. eigenvalues --   -0.67384  -0.67371  -0.67267  -0.67183  -0.65155
 Alpha  occ. eigenvalues --   -0.64478  -0.63736  -0.62933  -0.62289  -0.62100
 Alpha  occ. eigenvalues --   -0.61964  -0.61477  -0.61228  -0.60892  -0.60645
 Alpha  occ. eigenvalues --   -0.60540  -0.60508  -0.60430  -0.60410  -0.60319
 Alpha  occ. eigenvalues --   -0.59191  -0.59010  -0.57716  -0.57126  -0.56617
 Alpha  occ. eigenvalues --   -0.56415  -0.56183  -0.56003  -0.55883  -0.55551
 Alpha  occ. eigenvalues --   -0.55506  -0.55365  -0.54968  -0.54937  -0.54899
 Alpha  occ. eigenvalues --   -0.54747  -0.54653  -0.54197  -0.54012  -0.53738
 Alpha  occ. eigenvalues --   -0.53642  -0.53464  -0.52975  -0.52863  -0.52716
 Alpha  occ. eigenvalues --   -0.51837  -0.51443  -0.51211  -0.51172  -0.51067
 Alpha  occ. eigenvalues --   -0.50782  -0.50626  -0.50412  -0.49470  -0.49036
 Alpha  occ. eigenvalues --   -0.48889  -0.48822  -0.48574  -0.48322  -0.47902
 Alpha  occ. eigenvalues --   -0.47149  -0.46818  -0.46376  -0.46088  -0.45990
 Alpha  occ. eigenvalues --   -0.45486  -0.44846  -0.44504  -0.44216  -0.44020
 Alpha  occ. eigenvalues --   -0.43562  -0.43220  -0.42813  -0.42558  -0.42363
 Alpha  occ. eigenvalues --   -0.41973  -0.41867  -0.41571  -0.41087  -0.40642
 Alpha  occ. eigenvalues --   -0.40342  -0.40272  -0.39969  -0.39773  -0.39555
 Alpha  occ. eigenvalues --   -0.39344  -0.39128  -0.38990  -0.38816  -0.38739
 Alpha  occ. eigenvalues --   -0.38566  -0.38226  -0.37708  -0.37413  -0.37090
 Alpha  occ. eigenvalues --   -0.36976  -0.36452  -0.36173  -0.36094  -0.35608
 Alpha  occ. eigenvalues --   -0.35236  -0.34096  -0.29762  -0.29663  -0.25623
 Alpha virt. eigenvalues --   -0.10806  -0.06485  -0.03187  -0.01198  -0.00492
 Alpha virt. eigenvalues --    0.00552   0.00907   0.03523   0.05229   0.05537
 Alpha virt. eigenvalues --    0.06370   0.06778   0.07083   0.07158   0.08316

  Beta  occ. eigenvalues --  -88.05922 -88.05523 -88.05264 -24.34127 -24.33988
  Beta  occ. eigenvalues --  -24.33945 -24.33895 -24.33667 -24.33616 -24.33512
  Beta  occ. eigenvalues --  -24.33496 -24.33471 -18.87514 -18.87298 -18.86416
  Beta  occ. eigenvalues --  -18.84434 -18.84327 -18.83962 -18.83738 -18.83648
  Beta  occ. eigenvalues --  -18.83449 -18.83394 -18.83087 -18.83006 -18.82888
  Beta  occ. eigenvalues --  -18.82432 -17.80996 -14.29867 -14.21710 -14.15608
  Beta  occ. eigenvalues --  -14.15027 -11.55855 -11.55837 -11.55808 -10.33320
  Beta  occ. eigenvalues --  -10.33100 -10.32985 -10.22929 -10.20502 -10.20461
  Beta  occ. eigenvalues --  -10.18523 -10.16563 -10.15663 -10.14668 -10.14302
  Beta  occ. eigenvalues --  -10.13566 -10.13176 -10.10832 -10.10733 -10.10559
  Beta  occ. eigenvalues --  -10.07643 -10.06644 -10.06370 -10.06134 -10.06066
  Beta  occ. eigenvalues --  -10.05990  -7.95762  -7.95338  -7.95064  -6.15274
  Beta  occ. eigenvalues --   -6.15229  -6.15118  -6.14854  -6.14808  -6.14698
  Beta  occ. eigenvalues --   -6.14584  -6.14532  -6.14434  -5.40859  -5.40833
  Beta  occ. eigenvalues --   -5.40824  -5.40815  -5.40762  -2.34010  -1.37746
  Beta  occ. eigenvalues --   -1.37541  -1.37351  -1.27755  -1.27728  -1.27540
  Beta  occ. eigenvalues --   -1.27435  -1.27304  -1.27210  -1.23636  -1.23578
  Beta  occ. eigenvalues --   -1.22596  -1.19662  -1.18809  -1.18473  -1.17877
  Beta  occ. eigenvalues --   -1.16073  -1.15309  -1.11515  -1.07217  -1.06375
  Beta  occ. eigenvalues --   -1.05902  -1.05566  -1.05160  -1.04878  -1.04642
  Beta  occ. eigenvalues --   -1.04313  -1.00600  -0.97885  -0.96815  -0.93496
  Beta  occ. eigenvalues --   -0.91112  -0.88391  -0.84308  -0.80345  -0.80070
  Beta  occ. eigenvalues --   -0.79630  -0.79269  -0.79182  -0.78767  -0.78597
  Beta  occ. eigenvalues --   -0.75757  -0.74716  -0.72063  -0.72008  -0.71804
  Beta  occ. eigenvalues --   -0.71503  -0.68582  -0.67712  -0.67647  -0.67631
  Beta  occ. eigenvalues --   -0.67384  -0.67371  -0.67267  -0.67183  -0.65155
  Beta  occ. eigenvalues --   -0.64478  -0.63736  -0.62933  -0.62289  -0.62100
  Beta  occ. eigenvalues --   -0.61964  -0.61477  -0.61228  -0.60892  -0.60645
  Beta  occ. eigenvalues --   -0.60540  -0.60508  -0.60430  -0.60410  -0.60319
  Beta  occ. eigenvalues --   -0.59191  -0.59010  -0.57716  -0.57126  -0.56617
  Beta  occ. eigenvalues --   -0.56415  -0.56183  -0.56003  -0.55883  -0.55551
  Beta  occ. eigenvalues --   -0.55506  -0.55365  -0.54968  -0.54937  -0.54899
  Beta  occ. eigenvalues --   -0.54747  -0.54653  -0.54197  -0.54012  -0.53738
  Beta  occ. eigenvalues --   -0.53642  -0.53464  -0.52975  -0.52863  -0.52716
  Beta  occ. eigenvalues --   -0.51837  -0.51443  -0.51211  -0.51172  -0.51067
  Beta  occ. eigenvalues --   -0.50782  -0.50626  -0.50412  -0.49470  -0.49036
  Beta  occ. eigenvalues --   -0.48889  -0.48822  -0.48574  -0.48322  -0.47902
  Beta  occ. eigenvalues --   -0.47149  -0.46818  -0.46376  -0.46088  -0.45990
  Beta  occ. eigenvalues --   -0.45486  -0.44846  -0.44504  -0.44216  -0.44020
  Beta  occ. eigenvalues --   -0.43562  -0.43220  -0.42813  -0.42558  -0.42363
  Beta  occ. eigenvalues --   -0.41973  -0.41867  -0.41571  -0.41087  -0.40642
  Beta  occ. eigenvalues --   -0.40342  -0.40272  -0.39969  -0.39773  -0.39555
  Beta  occ. eigenvalues --   -0.39344  -0.39128  -0.38990  -0.38816  -0.38739
  Beta  occ. eigenvalues --   -0.38566  -0.38226  -0.37708  -0.37413  -0.37090
  Beta  occ. eigenvalues --   -0.36976  -0.36452  -0.36173  -0.36094  -0.35608
  Beta  occ. eigenvalues --   -0.35236  -0.34096  -0.29762  -0.29663  -0.25623
  Beta virt. eigenvalues --   -0.10806  -0.06485  -0.03187  -0.01198  -0.00492
  Beta virt. eigenvalues --    0.00552   0.00907   0.03523   0.05229   0.05537
  Beta virt. eigenvalues --    0.06370   0.06778   0.07083   0.07158   0.08316

 Mulliken charges and spin densities:
               1          2
     1  C   -0.055949   0.000000
     2  C    0.015891   0.000000
     3  C    0.001839   0.000000
     4  C    0.015643   0.000000
     5  C    0.004041   0.000000
     6  C    0.030307   0.000000
     7  C    0.018554   0.000000
     8  C    0.221336   0.000000
     9  C    0.257654   0.000000
    10  H    0.005556   0.000000
    11  H    0.013667   0.000000
    12  H    0.016589   0.000000
    13  H    0.014396   0.000000
    14  H    0.001890   0.000000
    15  O   -0.339916   0.000000
    16  O   -0.314960   0.000000
    17  O   -0.279739   0.000000
    18  O   -0.264163   0.000000
    19  C    0.161427   0.000000
    20  C    0.152084   0.000000
    21  H    0.060391   0.000000
    22  H    0.044948   0.000000
    23  H    0.059075   0.000000
    24  H    0.058169   0.000000
    25  H    0.070475   0.000000
    26  H    0.054109   0.000000
    27  O   -0.466013   0.000000
    28  O   -0.453834   0.000000
    29  O   -0.447252   0.000000
    30  S    0.866995   0.000000
    31  S    0.835932   0.000000
    32  S    0.844641   0.000000
    33  O   -0.461836   0.000000
    34  O   -0.415457   0.000000
    35  O   -0.454809   0.000000
    36  O   -0.402745   0.000000
    37  O   -0.451283   0.000000
    38  O   -0.423202   0.000000
    39  C    0.433851   0.000000
    40  C    0.434615   0.000000
    41  C    0.428067   0.000000
    42  F   -0.122226   0.000000
    43  F   -0.115802   0.000000
    44  F   -0.127638   0.000000
    45  F   -0.106539   0.000000
    46  F   -0.120783   0.000000
    47  F   -0.120443   0.000000
    48  F   -0.117005   0.000000
    49  F   -0.126194   0.000000
    50  F   -0.125904   0.000000
    51  C    0.286395   0.000000
    52  H    0.051297   0.000000
    53  C   -0.135546   0.000000
    54  C   -0.119243   0.000000
    55  C   -0.193590   0.000000
    56  C    0.068817   0.000000
    57  C    0.060072   0.000000
    58  C    0.107935   0.000000
    59  H    0.102265   0.000000
    60  H    0.100546   0.000000
    61  H    0.070544   0.000000
    62  N    0.135295   0.000000
    63  N    0.166282   0.000000
    64  N   -0.103918   0.000000
    65  N    0.018181   0.000000
    66  C    0.224607   0.000000
    67  H    0.105768   0.000000
    68  Lu   0.519714   0.000000
    69  O   -0.273878   0.000000
 Sum of Mulliken charges =  -0.00000   0.00000

 Dipole moment (field-independent basis, Debye):
    X=             15.2606    Y=             13.0332    Z=             -1.3258  Tot=             20.1124
 Quadrupole moment (field-independent basis, Debye-Ang):
   XX=           -345.7734   YY=           -328.8714   ZZ=           -328.7873
   XY=             -2.2122   XZ=             -3.0641   YZ=              1.9719

  Exact polarizability:   0.000   0.000   0.000   0.000   0.000   0.000
 Approx polarizability: 498.590 -34.829 416.578 -23.298 -57.327 516.583

 Normal termination of Gaussian 16 at Wed Apr 30 19:06:44 2025.
