 Gaussian 16, Revision A.03,
 Gaussian 16:  ES64L-G16RevA.03 25-Dec-2016

 -------------------------------------------------------------------
 #P MN15/gen scf=(maxcyc=500) freq scrf=(smd,solvent=DiChloroEthane)
 -------------------------------------------------------------------

 ---
 Opt
 ---
 Symbolic Z-matrix:
 Charge =  0 Multiplicity = 1

                         Standard orientation:
 ---------------------------------------------------------------------
 Center     Atomic      Atomic             Coordinates (Angstroms)
 Number     Number       Type             X           Y           Z
 ---------------------------------------------------------------------
      1          6           0       -1.220797    0.002417    0.000219
      2          6           0       -1.866189    1.256682    0.000235
      3          6           0       -1.949993   -1.201241    0.000363
      4          7           0       -2.445711    2.268768   -0.000407
      5          7           0       -2.547197   -2.204288    0.000053
      6          6           0        0.874703   -1.197867   -0.000399
      7          6           0        2.099033    1.192616    0.000097
      8          6           0        2.259884   -1.172645   -0.000188
      9          1           0        0.288780   -2.116696   -0.000499
     10          6           0        2.911151    0.054434    0.000232
     11          1           0        2.523173    2.199400    0.000355
     12          1           0        2.802050   -2.118892   -0.000516
     13          1           0        3.997292    0.140034    0.000658
     14          7           0        0.179020   -0.032763   -0.000138
     15          7           0        0.777026    1.152538    0.000013
 ---------------------------------------------------------------------

 SCF Done:  E(RMN15) =  -487.079985620     A.U. after   14 cycles

 The electronic state is 1-A.
 Alpha  occ. eigenvalues --  -14.27090 -14.17171 -14.10481 -14.09772 -10.13531
 Alpha  occ. eigenvalues --  -10.12579 -10.12467 -10.10510 -10.10502 -10.10091
 Alpha  occ. eigenvalues --  -10.09402  -1.14343  -0.95789  -0.93115  -0.92838
 Alpha  occ. eigenvalues --   -0.89513  -0.81787  -0.75318  -0.72553  -0.65043
 Alpha  occ. eigenvalues --   -0.62330  -0.58181  -0.56196  -0.55958  -0.53158
 Alpha  occ. eigenvalues --   -0.47875  -0.45051  -0.44289  -0.42033  -0.41416
 Alpha  occ. eigenvalues --   -0.39664  -0.39054  -0.38480  -0.38401  -0.36784
 Alpha  occ. eigenvalues --   -0.35600  -0.24422
 Alpha virt. eigenvalues --   -0.06789  -0.03153   0.01637   0.07328   0.09021
 Alpha virt. eigenvalues --    0.11171   0.11955   0.14043   0.15852   0.18025
 Alpha virt. eigenvalues --    0.19854   0.20085   0.21820   0.23267   0.24601

 Mulliken charges:
               1
     1  C   -0.291717
     2  C   -0.110805
     3  C   -0.143018
     4  N    0.035973
     5  N    0.030754
     6  C    0.133491
     7  C    0.047143
     8  C    0.039367
     9  H    0.078271
    10  C    0.046476
    11  H    0.072797
    12  H    0.071325
    13  H    0.058748
    14  N   -0.018352
    15  N   -0.050454
 Sum of Mulliken charges =  -0.00000

 Dipole moment (field-independent basis, Debye):
    X=             12.7985    Y=             -2.7415    Z=              0.0009  Tot=             13.0888
 Quadrupole moment (field-independent basis, Debye-Ang):
   XX=            -63.0004   YY=            -73.6847   ZZ=            -62.8940
   XY=             -0.0629   XZ=             -0.0017   YZ=              0.0044

  Exact polarizability: 245.870  -1.444 150.892   0.005   0.004  51.066
 Approx polarizability: 228.928  -0.942 171.283   0.011   0.001  56.039

                      1                      2                      3
                      A                      A                      A
 Frequencies --     56.5001               105.3859               133.9807
 Red. masses --      5.3021                 6.7664                10.2409
 Frc consts  --      0.0100                 0.0443                 0.1083
 IR Inten    --      2.6501                 1.2296                16.0412

                      4                      5                      6
                      A                      A                      A
 Frequencies --    143.0244               234.1639               360.0152
 Red. masses --      9.7097                 6.9248                 7.7261
 Frc consts  --      0.1170                 0.2237                 0.5900
 IR Inten    --      4.2545                 3.0190                 3.3269

                      7                      8                      9
                      A                      A                      A
 Frequencies --    412.1736               449.3513               501.0059
 Red. masses --      3.5467                 9.5693                 4.8532
 Frc consts  --      0.3550                 1.1384                 0.7177
 IR Inten    --      8.2351                 5.5273                 7.8465

                     10                     11                     12
                      A                      A                      A
 Frequencies --    508.5654               542.8203               618.5221
 Red. masses --      6.2480                10.1806                12.0032
 Frc consts  --      0.9521                 1.7674                 2.7056
 IR Inten    --      6.9513                 0.0914                 1.4290

                     13                     14                     15
                      A                      A                      A
 Frequencies --    643.2798               644.5391               724.1199
 Red. masses --      8.9627                 7.1351                 6.9599
 Frc consts  --      2.1852                 1.7464                 2.1502
 IR Inten    --     16.4872                12.2843                25.7514

                     16                     17                     18
                      A                      A                      A
 Frequencies --    740.7322               806.5839               923.9224
 Red. masses --      2.0303                 1.8876                 1.3282
 Frc consts  --      0.6563                 0.7236                 0.6680
 IR Inten    --     11.6965                63.4930                 2.4572

                     19                     20                     21
                      A                      A                      A
 Frequencies --   1002.0626              1016.0408              1047.1453
 Red. masses --      6.8632                 1.3788                 1.3601
 Frc consts  --      4.0604                 0.8386                 0.8787
 IR Inten    --     97.3318                 0.9536                 0.0073

                     22                     23                     24
                      A                      A                      A
 Frequencies --   1050.8698              1095.7524              1107.3387
 Red. masses --      7.1314                 1.7293                 1.4356
 Frc consts  --      4.6400                 1.2233                 1.0372
 IR Inten    --      0.0264                 8.7704                15.0640

                     25                     26                     27
                      A                      A                      A
 Frequencies --   1155.3938              1273.1013              1313.6031
 Red. masses --      1.1975                 3.4514                 2.0641
 Frc consts  --      0.9419                 3.2958                 2.0985
 IR Inten    --     28.1359               194.6391                 0.4316

                     28                     29                     30
                      A                      A                      A
 Frequencies --   1356.5729              1370.7429              1460.0319
 Red. masses --      3.9757                 4.4752                 2.6908
 Frc consts  --      4.3108                 4.9543                 3.3795
 IR Inten    --    293.1379               209.7998               593.3238

                     31                     32                     33
                      A                      A                      A
 Frequencies --   1512.6515              1628.0592              1690.8751
 Red. masses --      3.1377                 6.6607                 6.9038
 Frc consts  --      4.2300                10.4019                11.6296
 IR Inten    --     93.2601                36.2107               305.1633

                     34                     35                     36
                      A                      A                      A
 Frequencies --   2328.9798              2358.8192              3264.1702
 Red. masses --     12.6469                12.6629                 1.0936
 Frc consts  --     40.4173                41.5120                 6.8650
 IR Inten    --    425.7427               491.6062                 6.2150

                     37                     38                     39
                      A                      A                      A
 Frequencies --   3275.1601              3290.0735              3295.0032
 Red. masses --      1.0928                 1.0989                 1.0994
 Frc consts  --      6.9067                 7.0083                 7.0325
 IR Inten    --      0.1650                 6.7210                14.7319

 - Thermochemistry -
 -------------------
 Temperature   298.150 Kelvin.  Pressure   1.00000 Atm.
 Atom     1 has atomic number  6 and mass  12.00000

 Molecular mass:   144.04360 amu.
 Principal axes and moments of inertia in atomic units:
                           1         2         3
     Eigenvalues --   927.523571941.742492869.26599
           X            1.00000  -0.00198   0.00000
           Y            0.00198   1.00000   0.00001
           Z           -0.00000  -0.00001   1.00000
 This molecule is an asymmetric top.
 Rotational symmetry number  1.
 Warning -- assumption of classical behavior for rotation
           may cause significant error
 Rotational temperatures (Kelvin)      0.09338     0.04461     0.03019
 Rotational constants (GHZ):           1.94576     0.92944     0.62899
 Zero-point vibrational energy     271798.3 (Joules/Mol)
                                   64.96136 (Kcal/Mol)
 Warning -- explicit consideration of  12 degrees of freedom as
           vibrations may cause significant error
 Vibrational temperatures:     81.29   151.63   192.77   205.78   336.91
          (Kelvin)            517.98   593.03   646.52   720.84   731.71
                              781.00   889.92   925.54   927.35  1041.85
                             1065.75  1160.49  1329.32  1441.74  1461.86
                             1506.61  1511.97  1576.54  1593.21  1662.35
                             1831.71  1889.98  1951.81  1972.19  2100.66
                             2176.37  2342.41  2432.79  3350.88  3393.81
                             4696.41  4712.22  4733.68  4740.77

 Zero-point correction=                           0.103523 (Hartree/Particle)
 Thermal correction to Energy=                    0.112294
 Thermal correction to Enthalpy=                  0.113238
 Thermal correction to Gibbs Free Energy=         0.068747
 Sum of electronic and zero-point Energies=           -486.976463
 Sum of electronic and thermal Energies=              -486.967692
 Sum of electronic and thermal Enthalpies=            -486.966747
 Sum of electronic and thermal Free Energies=         -487.011238

                     E (Thermal)             CV                S
                      KCal/Mol        Cal/Mol-Kelvin    Cal/Mol-Kelvin
 Total                   70.466             31.987             93.639
 Electronic               0.000              0.000              0.000
 Translational            0.889              2.981             40.806
 Rotational               0.889              2.981             30.025
 Vibrational             68.688             26.025             22.808
 Vibration     1          0.596              1.975              4.576
 Vibration     2          0.605              1.945              3.352
 Vibration     3          0.613              1.919              2.888
 Vibration     4          0.616              1.910              2.763
 Vibration     5          0.654              1.789              1.847
 Vibration     6          0.735              1.555              1.122
 Vibration     7          0.776              1.444              0.919
 Vibration     8          0.808              1.362              0.798
 Vibration     9          0.856              1.248              0.656
 Vibration    10          0.864              1.231              0.637
 Vibration    11          0.898              1.155              0.559
 Vibration    12          0.978              0.993              0.419

 Optimization completed.
    -- Stationary point found.
 Normal termination of Gaussian 16 at Tue Jan 28 16:01:30 2025.
