 Gaussian 16, Revision A.03,
 Gaussian 16:  ES64L-G16RevA.03 25-Dec-2016

 ----------------------------------------------------------------------
 # irc=(maxpoints=100,recorrect=never,calcfc,maxcycles=500,nogradstop)
 UMN15/genecp scrf=(smd,solvent=DiChloroEthane)
 ----------------------------------------------------------------------

 -----------------------------------------------------------
 IRC for Going from i2 to i3, where we are forming bond 7-56
 -----------------------------------------------------------
 Symbolic Z-matrix:
 Charge =  0 Multiplicity = 2

 SCF Done:  E(UMN15) =  -5218.57352307     A.U. after   25 cycles
 SCF Done:  E(UMN15) =  -5218.57405536     A.U. after   17 cycles
 SCF Done:  E(UMN15) =  -5218.57553415     A.U. after   17 cycles
 SCF Done:  E(UMN15) =  -5218.57762298     A.U. after   17 cycles
 SCF Done:  E(UMN15) =  -5218.57981990     A.U. after   17 cycles
 SCF Done:  E(UMN15) =  -5218.58159970     A.U. after   17 cycles
 SCF Done:  E(UMN15) =  -5218.58267766     A.U. after   16 cycles
 SCF Done:  E(UMN15) =  -5218.58322349     A.U. after   15 cycles
 SCF Done:  E(UMN15) =  -5218.58354181     A.U. after   14 cycles
 SCF Done:  E(UMN15) =  -5218.58355024     A.U. after   15 cycles
 SCF Done:  E(UMN15) =  -5218.59220630     A.U. after   15 cycles
 SCF Done:  E(UMN15) =  -5218.59243396     A.U. after   14 cycles
 SCF Done:  E(UMN15) =  -5218.59262141     A.U. after   14 cycles
 SCF Done:  E(UMN15) =  -5218.59282100     A.U. after   14 cycles
 SCF Done:  E(UMN15) =  -5218.59294381     A.U. after   13 cycles
 SCF Done:  E(UMN15) =  -5218.59314039     A.U. after   14 cycles
 SCF Done:  E(UMN15) =  -5218.59323098     A.U. after   13 cycles
 SCF Done:  E(UMN15) =  -5218.59309531     A.U. after   14 cycles
 SCF Done:  E(UMN15) =  -5218.59324921     A.U. after   13 cycles
 SCF Done:  E(UMN15) =  -5218.59347294     A.U. after   13 cycles

                          Input orientation:
 ---------------------------------------------------------------------
 Center     Atomic      Atomic             Coordinates (Angstroms)
 Number     Number       Type             X           Y           Z
 ---------------------------------------------------------------------
      1          6           0       -5.617376   -0.803930    0.324875
      2          6           0       -5.970986   -1.116719   -0.995186
      3          6           0       -7.097347   -1.902039   -1.239592
      4          6           0       -7.870302   -2.371137   -0.174219
      5          6           0       -7.514540   -2.061359    1.140730
      6          6           0       -6.385784   -1.281090    1.393190
      7          6           0       -2.147816    0.059120   -0.307557
      8          6           0       -1.400028   -0.266494    0.924894
      9          6           0       -1.480838    0.466408   -1.556301
     10          1           0       -5.361343   -0.757394   -1.827578
     11          1           0       -7.370130   -2.150394   -2.267128
     12          1           0       -8.751058   -2.986719   -0.369586
     13          1           0       -8.111344   -2.435560    1.974878
     14          1           0       -6.095560   -1.047408    2.420892
     15          8           0       -0.285555    0.756698   -1.565340
     16          8           0       -0.371990    0.363501    1.172874
     17          8           0        1.600908    2.524906    0.164185
     18          8           0        1.570064   -1.916189    1.509066
     19          8           0       -0.202248   -1.935426   -0.726556
     20         16           0        0.492387   -2.314100   -1.974605
     21         16           0        2.066287    2.900950   -1.194344
     22         16           0        2.461704   -1.292033    2.512920
     23          8           0        1.768601   -1.568504   -2.109072
     24          8           0       -0.328669   -2.402474   -3.168804
     25          8           0        2.491333    1.698256   -1.941748
     26          8           0        1.241852    3.871167   -1.896470
     27          8           0        2.766042    0.104358    2.115739
     28          8           0        2.159497   -1.527790    3.909622
     29          6           0        4.051336   -2.151986    2.187565
     30          6           0        3.656461    3.766510   -0.888159
     31          6           0        1.038208   -4.034107   -1.631595
     32          9           0        5.016443   -1.668569    2.953589
     33          9           0        4.384710   -1.968950    0.910631
     34          9           0        3.928356   -3.450469    2.412636
     35          9           0        4.203358    4.120385   -2.040879
     36          9           0        4.489637    2.958581   -0.246097
     37          9           0        3.456061    4.850632   -0.154227
     38          9           0       -0.003096   -4.757456   -1.244005
     39          9           0        1.949802   -4.041354   -0.671875
     40          9           0        1.556517   -4.577448   -2.723045
     41          6           0       -4.412362    0.054302    0.601070
     42          1           0       -3.998404   -0.148335    1.601314
     43          6           0       -4.766697    1.605397    0.614999
     44          6           0       -5.763131    1.872992    1.664760
     45          6           0       -5.291746    2.001504   -0.699209
     46          6           0       -1.466194    3.369100    0.333936
     47          6           0       -2.023564    2.754241    2.586708
     48          6           0       -1.099202    3.296029    1.666307
     49          1           0       -0.794887    3.750543   -0.438306
     50          1           0       -1.798121    2.677836    3.651565
     51          1           0       -0.113661    3.624475    2.000998
     52          7           0       -6.572906    2.040948    2.472218
     53          7           0       -5.693156    2.269029   -1.750081
     54          7           0       -3.510295    2.353068    0.933870
     55          7           0       -3.191447    2.272355    2.213441
     56          6           0       -2.730591    2.890203   -0.016378
     57          1           0       -3.113717    2.910375   -1.041688
     58          8           0       -3.467972   -0.126938   -0.432060
     59         70           0        1.682033    0.007018   -0.185890
     60          6           0       -2.316750    0.483061   -2.794028
     61          1           0       -2.643798   -0.544990   -3.015377
     62          1           0       -3.223180    1.091768   -2.655627
     63          1           0       -1.716625    0.865955   -3.625992
     64          6           0       -1.863509   -1.381838    1.807652
     65          1           0       -2.335775   -0.971945    2.715972
     66          1           0       -2.561094   -2.062717    1.301670
     67          1           0       -0.955690   -1.920218    2.117550
 ---------------------------------------------------------------------

 Alpha  occ. eigenvalues --  -88.03464 -88.03121 -88.03059 -24.32785 -24.32757
 Alpha  occ. eigenvalues --  -24.32700 -24.32619 -24.32518 -24.32476 -24.32278
 Alpha  occ. eigenvalues --  -24.32269 -24.32226 -18.92694 -18.84626 -18.84557
 Alpha  occ. eigenvalues --  -18.81472 -18.81229 -18.81180 -18.81051 -18.80924
 Alpha  occ. eigenvalues --  -18.80833 -18.80825 -18.80493 -18.80318 -16.28209
 Alpha  occ. eigenvalues --  -14.30556 -14.22312 -14.16675 -14.15857 -10.91576
 Alpha  occ. eigenvalues --  -10.91555 -10.91541 -10.31426 -10.31127 -10.31045
 Alpha  occ. eigenvalues --  -10.24583 -10.19563 -10.19303 -10.18632 -10.17762
 Alpha  occ. eigenvalues --  -10.17600 -10.16142 -10.15641 -10.15076 -10.13969
 Alpha  occ. eigenvalues --  -10.13536 -10.09018 -10.07554 -10.07470 -10.06807
 Alpha  occ. eigenvalues --  -10.06722 -10.06693 -10.06463 -10.06168  -7.93233
 Alpha  occ. eigenvalues --   -7.92853  -7.92818  -6.12730  -6.12704  -6.12653
 Alpha  occ. eigenvalues --   -6.12357  -6.12328  -6.12306  -6.12286  -6.12270
 Alpha  occ. eigenvalues --   -6.12248  -4.99865  -4.99855  -4.99828  -4.99805
 Alpha  occ. eigenvalues --   -4.99778  -1.95371  -1.36284  -1.36078  -1.35869
 Alpha  occ. eigenvalues --   -1.26300  -1.26257  -1.26124  -1.26089  -1.25871
 Alpha  occ. eigenvalues --   -1.25828  -1.19758  -1.17960  -1.17538  -1.17186
 Alpha  occ. eigenvalues --   -1.17122  -1.11681  -1.10016  -1.04576  -1.04272
 Alpha  occ. eigenvalues --   -1.03714  -1.03115  -1.02761  -1.02553  -1.01746
 Alpha  occ. eigenvalues --   -1.00311  -0.99771  -0.99529  -0.98773  -0.97772
 Alpha  occ. eigenvalues --   -0.94483  -0.92495  -0.89636  -0.86108  -0.81814
 Alpha  occ. eigenvalues --   -0.80927  -0.79590  -0.79385  -0.78226  -0.77967
 Alpha  occ. eigenvalues --   -0.77822  -0.77365  -0.76329  -0.74226  -0.70406
 Alpha  occ. eigenvalues --   -0.70160  -0.70003  -0.69549  -0.69030  -0.66831
 Alpha  occ. eigenvalues --   -0.66377  -0.66304  -0.66271  -0.66157  -0.66076
 Alpha  occ. eigenvalues --   -0.65894  -0.65845  -0.65091  -0.63793  -0.62509
 Alpha  occ. eigenvalues --   -0.60261  -0.59762  -0.59447  -0.58883  -0.58813
 Alpha  occ. eigenvalues --   -0.58336  -0.57020  -0.56729  -0.56571  -0.55379
 Alpha  occ. eigenvalues --   -0.54599  -0.54445  -0.54398  -0.54349  -0.54263
 Alpha  occ. eigenvalues --   -0.54043  -0.53931  -0.52812  -0.52562  -0.52262
 Alpha  occ. eigenvalues --   -0.52049  -0.51980  -0.51950  -0.51710  -0.51513
 Alpha  occ. eigenvalues --   -0.51422  -0.51023  -0.50949  -0.50748  -0.50242
 Alpha  occ. eigenvalues --   -0.50115  -0.50054  -0.49967  -0.49858  -0.49801
 Alpha  occ. eigenvalues --   -0.49755  -0.49625  -0.49405  -0.49050  -0.48097
 Alpha  occ. eigenvalues --   -0.47893  -0.47785  -0.47453  -0.47233  -0.46912
 Alpha  occ. eigenvalues --   -0.46753  -0.46270  -0.45803  -0.44929  -0.44496
 Alpha  occ. eigenvalues --   -0.44080  -0.43807  -0.43449  -0.43057  -0.42866
 Alpha  occ. eigenvalues --   -0.42452  -0.42425  -0.42253  -0.41285  -0.40995
 Alpha  occ. eigenvalues --   -0.40894  -0.40603  -0.40025  -0.39979  -0.39854
 Alpha  occ. eigenvalues --   -0.39668  -0.39304  -0.39099  -0.37595  -0.37179
 Alpha  occ. eigenvalues --   -0.36996  -0.36831  -0.36653  -0.36543  -0.36096
 Alpha  occ. eigenvalues --   -0.35132  -0.34792  -0.34604  -0.33211  -0.32983
 Alpha  occ. eigenvalues --   -0.32549  -0.32294  -0.30705  -0.30480  -0.28404
 Alpha  occ. eigenvalues --   -0.26499  -0.26480  -0.26441  -0.26362  -0.26349
 Alpha  occ. eigenvalues --   -0.26312  -0.26195
 Alpha virt. eigenvalues --   -0.11393  -0.07117  -0.04212  -0.04175  -0.01708
 Alpha virt. eigenvalues --   -0.00366  -0.00019   0.02023   0.03547   0.04663
 Alpha virt. eigenvalues --    0.06350   0.07360   0.08161   0.08678   0.08894

  Beta  occ. eigenvalues --  -88.03464 -88.03120 -88.03059 -24.32785 -24.32758
  Beta  occ. eigenvalues --  -24.32700 -24.32619 -24.32518 -24.32476 -24.32278
  Beta  occ. eigenvalues --  -24.32269 -24.32226 -18.92371 -18.84408 -18.84276
  Beta  occ. eigenvalues --  -18.81470 -18.81229 -18.81175 -18.81051 -18.80924
  Beta  occ. eigenvalues --  -18.80825 -18.80805 -18.80493 -18.80318 -16.28205
  Beta  occ. eigenvalues --  -14.30524 -14.22314 -14.16674 -14.15853 -10.91569
  Beta  occ. eigenvalues --  -10.91551 -10.91531 -10.31426 -10.31127 -10.31045
  Beta  occ. eigenvalues --  -10.24568 -10.19561 -10.19307 -10.18693 -10.17827
  Beta  occ. eigenvalues --  -10.17113 -10.16138 -10.15642 -10.15074 -10.13972
  Beta  occ. eigenvalues --  -10.13532 -10.09015 -10.07554 -10.07471 -10.06807
  Beta  occ. eigenvalues --  -10.06722 -10.06692 -10.06458 -10.06166  -7.93233
  Beta  occ. eigenvalues --   -7.92852  -7.92818  -6.12730  -6.12704  -6.12653
  Beta  occ. eigenvalues --   -6.12357  -6.12327  -6.12306  -6.12286  -6.12270
  Beta  occ. eigenvalues --   -6.12248  -4.99853  -4.99836  -4.99808  -4.99803
  Beta  occ. eigenvalues --   -4.99773  -1.95364  -1.36284  -1.36078  -1.35869
  Beta  occ. eigenvalues --   -1.26300  -1.26257  -1.26124  -1.26089  -1.25870
  Beta  occ. eigenvalues --   -1.25827  -1.19460  -1.17536  -1.17345  -1.17184
  Beta  occ. eigenvalues --   -1.17094  -1.11100  -1.09411  -1.04574  -1.04268
  Beta  occ. eigenvalues --   -1.03711  -1.03102  -1.02741  -1.02540  -1.01697
  Beta  occ. eigenvalues --   -1.00286  -0.99764  -0.99523  -0.98763  -0.97750
  Beta  occ. eigenvalues --   -0.94395  -0.92376  -0.89509  -0.85290  -0.81377
  Beta  occ. eigenvalues --   -0.80739  -0.79574  -0.79368  -0.78226  -0.77965
  Beta  occ. eigenvalues --   -0.77815  -0.77120  -0.76289  -0.73524  -0.70405
  Beta  occ. eigenvalues --   -0.70159  -0.69992  -0.69482  -0.68796  -0.66304
  Beta  occ. eigenvalues --   -0.66280  -0.66263  -0.66157  -0.66078  -0.66047
  Beta  occ. eigenvalues --   -0.65891  -0.65844  -0.64962  -0.63429  -0.62457
  Beta  occ. eigenvalues --   -0.60134  -0.59729  -0.59341  -0.58803  -0.58741
  Beta  occ. eigenvalues --   -0.58154  -0.56735  -0.56584  -0.56390  -0.54572
  Beta  occ. eigenvalues --   -0.54524  -0.54398  -0.54333  -0.54257  -0.54029
  Beta  occ. eigenvalues --   -0.53984  -0.53545  -0.52709  -0.52518  -0.52124
  Beta  occ. eigenvalues --   -0.51979  -0.51916  -0.51840  -0.51698  -0.51499
  Beta  occ. eigenvalues --   -0.51388  -0.51007  -0.50714  -0.50539  -0.50123
  Beta  occ. eigenvalues --   -0.50079  -0.50040  -0.49931  -0.49836  -0.49740
  Beta  occ. eigenvalues --   -0.49622  -0.49464  -0.49297  -0.48713  -0.48050
  Beta  occ. eigenvalues --   -0.47893  -0.47785  -0.47452  -0.47224  -0.46879
  Beta  occ. eigenvalues --   -0.46432  -0.46196  -0.45113  -0.44870  -0.44329
  Beta  occ. eigenvalues --   -0.43973  -0.43486  -0.43121  -0.42999  -0.42715
  Beta  occ. eigenvalues --   -0.42166  -0.41966  -0.41753  -0.41246  -0.40917
  Beta  occ. eigenvalues --   -0.40574  -0.40438  -0.39993  -0.39872  -0.39704
  Beta  occ. eigenvalues --   -0.39649  -0.39217  -0.39000  -0.37434  -0.37172
  Beta  occ. eigenvalues --   -0.36989  -0.36813  -0.36601  -0.36366  -0.35809
  Beta  occ. eigenvalues --   -0.35115  -0.34719  -0.34524  -0.33200  -0.32969
  Beta  occ. eigenvalues --   -0.32457  -0.31655  -0.30687  -0.30455  -0.26506
  Beta  occ. eigenvalues --   -0.26456  -0.26402  -0.26361  -0.26314  -0.26287
  Beta  occ. eigenvalues --   -0.26195
  Beta virt. eigenvalues --   -0.13142  -0.11145  -0.06994  -0.04161  -0.03030
  Beta virt. eigenvalues --   -0.01648  -0.00325  -0.00004   0.02384   0.04244
  Beta virt. eigenvalues --    0.06096   0.06360   0.07383   0.08183   0.08745

 Mulliken charges and spin densities:
               1          2
     1  C   -0.017596   0.003346
     2  C    0.031903  -0.000999
     3  C    0.007743   0.001118
     4  C    0.023766  -0.000815
     5  C    0.005622   0.001145
     6  C    0.017554  -0.000901
     7  C    0.143116   0.709331
     8  C   -0.002591  -0.080801
     9  C   -0.025067  -0.087045
    10  H   -0.000847   0.000174
    11  H    0.020012  -0.000065
    12  H    0.023116   0.000049
    13  H    0.020391  -0.000063
    14  H    0.013390   0.000100
    15  O   -0.190071   0.170435
    16  O   -0.218682   0.129710
    17  O   -0.474261   0.000794
    18  O   -0.454985   0.000875
    19  O   -0.479144   0.006497
    20  S    0.850544   0.001901
    21  S    0.851199  -0.000216
    22  S    0.831102  -0.000136
    23  O   -0.478542   0.002269
    24  O   -0.459292  -0.000081
    25  O   -0.469518   0.000196
    26  O   -0.454107   0.000312
    27  O   -0.480520   0.000309
    28  O   -0.451322  -0.000014
    29  C    0.406954   0.000105
    30  C    0.402164   0.000009
    31  C    0.408008   0.000343
    32  F   -0.137195   0.000007
    33  F   -0.136866  -0.000000
    34  F   -0.136898   0.000003
    35  F   -0.138123   0.000003
    36  F   -0.135781   0.000001
    37  F   -0.140657   0.000000
    38  F   -0.143567   0.000014
    39  F   -0.127630   0.000021
    40  F   -0.140759   0.000109
    41  C    0.232372  -0.009103
    42  H    0.060571   0.001115
    43  C   -0.092015   0.015159
    44  C   -0.123262  -0.001143
    45  C   -0.167520  -0.000277
    46  C    0.055994  -0.000257
    47  C    0.072604   0.004635
    48  C    0.142854  -0.003605
    49  H    0.058206  -0.000174
    50  H    0.106020  -0.000369
    51  H    0.100373   0.000321
    52  N    0.150370   0.003605
    53  N    0.164658   0.001105
    54  N   -0.117547   0.014716
    55  N    0.012487  -0.000793
    56  C    0.202718  -0.007965
    57  H    0.122194   0.001769
    58  O   -0.218999   0.114559
    59  Yb   0.470905   0.004938
    60  C    0.110225   0.001908
    61  H    0.077143   0.000892
    62  H    0.035111  -0.000700
    63  H    0.061941  -0.000862
    64  C    0.102029   0.000541
    65  H    0.084742   0.003206
    66  H    0.060539   0.000463
    67  H    0.072722  -0.001727
 Sum of Mulliken charges =  -0.00000   1.00000

 Dipole moment (field-independent basis, Debye):
    X=            -21.9209    Y=              8.6178    Z=              5.9049  Tot=             24.2829
 Quadrupole moment (field-independent basis, Debye-Ang):
   XX=           -296.5259   YY=           -324.5943   ZZ=           -353.5297
   XY=              0.1468   XZ=             -9.9995   YZ=             15.5055

  Exact polarizability:   0.000   0.000   0.000   0.000   0.000   0.000
 Approx polarizability: 489.255  60.565 383.194   4.167  -8.378 511.638

 Normal termination of Gaussian 16 at Wed Mar  5 15:55:42 2025.
