 Gaussian 16, Revision A.03,
 Gaussian 16:  ES64L-G16RevA.03 25-Dec-2016

 ----------------------------------------------------------------------
 #P UMN15/genecp scf=(maxcyc=500) irc=(maxpoints=100,recorrect=never,ca
 lcfc,maxcycles=500,nogradstop) scrf=(smd,solvent=DiChloroEthane)
 ----------------------------------------------------------------------

 ---
 Opt
 ---
 Symbolic Z-matrix:
 Charge =  0 Multiplicity = 1

 SCF Done:  E(UMN15) =  -5446.19316286     A.U. after   20 cycles
 SCF Done:  E(UMN15) =  -5446.19348773     A.U. after   12 cycles
 SCF Done:  E(UMN15) =  -5446.19454912     A.U. after   12 cycles
 SCF Done:  E(UMN15) =  -5446.19630023     A.U. after   12 cycles
 SCF Done:  E(UMN15) =  -5446.19858881     A.U. after   12 cycles
 SCF Done:  E(UMN15) =  -5446.20118893     A.U. after   12 cycles
 SCF Done:  E(UMN15) =  -5446.20378930     A.U. after   11 cycles
 SCF Done:  E(UMN15) =  -5446.20602001     A.U. after   11 cycles
 SCF Done:  E(UMN15) =  -5446.20757881     A.U. after   11 cycles
 SCF Done:  E(UMN15) =  -5446.20847624     A.U. after   11 cycles
 SCF Done:  E(UMN15) =  -5446.20450272     A.U. after   10 cycles
 SCF Done:  E(UMN15) =  -5446.20454427     A.U. after   10 cycles
 SCF Done:  E(UMN15) =  -5446.20456617     A.U. after   10 cycles
 SCF Done:  E(UMN15) =  -5446.20464878     A.U. after   10 cycles
 SCF Done:  E(UMN15) =  -5446.20471442     A.U. after    9 cycles
 SCF Done:  E(UMN15) =  -5446.20476123     A.U. after   10 cycles
 SCF Done:  E(UMN15) =  -5446.20476912     A.U. after   10 cycles
 SCF Done:  E(UMN15) =  -5446.20461805     A.U. after   10 cycles
 SCF Done:  E(UMN15) =  -5446.20464242     A.U. after   10 cycles
 SCF Done:  E(UMN15) =  -5446.20480494     A.U. after   10 cycles

                          Input orientation:
 ---------------------------------------------------------------------
 Center     Atomic      Atomic             Coordinates (Angstroms)
 Number     Number       Type             X           Y           Z
 ---------------------------------------------------------------------
      1          6           0       -2.097360    0.223869    1.068314
      2          6           0       -1.713744    0.014947   -0.275711
      3          6           0       -1.133729    0.122359    2.109799
      4          8           0        0.081426   -0.187106    1.947134
      5          8           0       -0.531558   -0.061395   -0.700049
      6          8           0       -2.700634   -0.202374   -1.137269
      7          8           0       -1.589780    0.331511    3.328702
      8          6           0       -2.408163   -0.252711   -2.531205
      9          6           0       -0.681754    0.182481    4.414691
     10          1           0       -3.364886   -0.446808   -3.034704
     11          1           0       -1.685404   -1.054651   -2.748180
     12          1           0       -1.995026    0.703769   -2.877145
     13          1           0       -1.276695    0.289888    5.328448
     14          1           0        0.090871    0.963541    4.378993
     15          1           0       -0.199392   -0.803601    4.392282
     16          8           0        3.188744   -0.828532    1.351396
     17          8           0        2.025429   -0.735565   -1.742898
     18          8           0        0.338126    2.314947    0.842166
     19         16           0        0.920490    3.092133   -0.286699
     20         16           0        3.940159    0.401523    1.751044
     21         16           0        1.573405   -2.137283   -1.477558
     22          8           0        1.634812    2.096484   -1.144509
     23          8           0        1.605054    4.324072    0.015064
     24          8           0        3.024796    1.537398    1.433053
     25          8           0        4.618594    0.402519    3.018740
     26          8           0        1.185761   -2.203569   -0.045346
     27          8           0        0.670027   -2.738485   -2.435524
     28          6           0        3.138657   -3.099562   -1.598588
     29          6           0        5.217420    0.520528    0.433560
     30          6           0       -0.552409    3.613087   -1.264893
     31          9           0        2.942397   -4.314497   -1.116891
     32          9           0        4.089596   -2.497804   -0.908615
     33          9           0        3.498662   -3.180333   -2.866936
     34          9           0        4.587507    0.581747   -0.733385
     35          9           0        5.991743   -0.546067    0.459720
     36          9           0        5.944214    1.606733    0.602056
     37          9           0       -1.215626    2.558816   -1.713041
     38          9           0       -0.164717    4.352057   -2.286713
     39          9           0       -1.351902    4.320220   -0.483574
     40          6           0       -4.589321    0.148665    1.057949
     41          6           0       -4.670233   -1.425499    1.297796
     42          6           0       -6.070854   -1.885122    1.252790
     43          6           0       -4.176345   -1.644801    2.671540
     44          6           0       -1.905285   -3.336628   -0.375408
     45          6           0       -3.836711   -3.067436   -1.766329
     46          6           0       -2.508889   -3.515696   -1.605904
     47          1           0       -0.886859   -3.663358   -0.164464
     48          1           0       -4.385139   -3.208290   -2.699620
     49          1           0       -1.984717   -3.995774   -2.432635
     50          7           0       -7.175724   -2.221453    1.258413
     51          7           0       -3.811380   -1.802618    3.757335
     52          7           0       -3.874972   -2.256498    0.340012
     53          7           0       -4.487113   -2.437413   -0.810873
     54          6           0       -2.643928   -2.701156    0.625034
     55          1           0       -2.264921   -2.553994    1.636944
     56          1           0       -5.298586    0.500718    1.828721
     57          6           0       -5.051638    0.757792   -0.265491
     58          6           0       -4.448323    1.976304   -0.619801
     59          6           0       -6.052597    0.237961   -1.091953
     60          6           0       -4.804532    2.635466   -1.793131
     61          1           0       -3.662982    2.392819    0.014772
     62          6           0       -6.413168    0.905798   -2.268440
     63          1           0       -6.562142   -0.694145   -0.851858
     64          6           0       -5.787833    2.098124   -2.629846
     65          1           0       -4.305357    3.571438   -2.055243
     66          1           0       -7.191755    0.478778   -2.904085
     67          1           0       -6.068306    2.609398   -3.552611
     68         71           0        1.405199    0.236926    0.270421
     69          8           0       -3.358984    0.642862    1.478455
 ---------------------------------------------------------------------

 Alpha  occ. eigenvalues --  -88.05972 -88.05581 -88.05371 -24.34366 -24.34189
 Alpha  occ. eigenvalues --  -24.34039 -24.34025 -24.33862 -24.33803 -24.33766
 Alpha  occ. eigenvalues --  -24.33706 -24.33691 -18.87624 -18.86746 -18.86229
 Alpha  occ. eigenvalues --  -18.84394 -18.84381 -18.83968 -18.83776 -18.83582
 Alpha  occ. eigenvalues --  -18.83538 -18.83497 -18.83092 -18.82855 -18.82686
 Alpha  occ. eigenvalues --  -18.82512 -17.80961 -14.29539 -14.21351 -14.15547
 Alpha  occ. eigenvalues --  -14.15161 -11.55821 -11.55795 -11.55778 -10.33409
 Alpha  occ. eigenvalues --  -10.33134 -10.33075 -10.23424 -10.20598 -10.20305
 Alpha  occ. eigenvalues --  -10.18347 -10.17209 -10.15352 -10.14630 -10.14526
 Alpha  occ. eigenvalues --  -10.13460 -10.12943 -10.11115 -10.10906 -10.10263
 Alpha  occ. eigenvalues --  -10.07972 -10.06364 -10.05968 -10.05949 -10.05848
 Alpha  occ. eigenvalues --  -10.05810  -7.95813  -7.95392  -7.95161  -6.15323
 Alpha  occ. eigenvalues --   -6.15280  -6.15172  -6.14909  -6.14862  -6.14756
 Alpha  occ. eigenvalues --   -6.14677  -6.14631  -6.14536  -5.40816  -5.40797
 Alpha  occ. eigenvalues --   -5.40789  -5.40786  -5.40727  -2.33975  -1.37858
 Alpha  occ. eigenvalues --   -1.37659  -1.37493  -1.27891  -1.27853  -1.27672
 Alpha  occ. eigenvalues --   -1.27545  -1.27492  -1.27428  -1.23758  -1.23502
 Alpha  occ. eigenvalues --   -1.22502  -1.19767  -1.18771  -1.18179  -1.17974
 Alpha  occ. eigenvalues --   -1.16021  -1.15210  -1.11347  -1.07298  -1.06380
 Alpha  occ. eigenvalues --   -1.05983  -1.05555  -1.05175  -1.04906  -1.04572
 Alpha  occ. eigenvalues --   -1.04335  -1.00629  -0.98013  -0.96829  -0.93333
 Alpha  occ. eigenvalues --   -0.90590  -0.88648  -0.84198  -0.80611  -0.80160
 Alpha  occ. eigenvalues --   -0.79744  -0.79679  -0.78955  -0.78661  -0.78326
 Alpha  occ. eigenvalues --   -0.76200  -0.74793  -0.72178  -0.71929  -0.71872
 Alpha  occ. eigenvalues --   -0.71731  -0.68412  -0.67830  -0.67760  -0.67735
 Alpha  occ. eigenvalues --   -0.67512  -0.67435  -0.67348  -0.66738  -0.65571
 Alpha  occ. eigenvalues --   -0.64190  -0.63525  -0.62788  -0.62412  -0.62020
 Alpha  occ. eigenvalues --   -0.61689  -0.61388  -0.61081  -0.60916  -0.60607
 Alpha  occ. eigenvalues --   -0.60515  -0.60496  -0.60410  -0.60369  -0.60321
 Alpha  occ. eigenvalues --   -0.59289  -0.58691  -0.58053  -0.57119  -0.56803
 Alpha  occ. eigenvalues --   -0.56725  -0.56316  -0.56236  -0.56059  -0.55825
 Alpha  occ. eigenvalues --   -0.55558  -0.55496  -0.55260  -0.55004  -0.54947
 Alpha  occ. eigenvalues --   -0.54523  -0.54193  -0.54011  -0.53842  -0.53753
 Alpha  occ. eigenvalues --   -0.53544  -0.53175  -0.52955  -0.52808  -0.52443
 Alpha  occ. eigenvalues --   -0.51887  -0.51615  -0.51531  -0.51317  -0.51269
 Alpha  occ. eigenvalues --   -0.51203  -0.50973  -0.50376  -0.49554  -0.49213
 Alpha  occ. eigenvalues --   -0.49191  -0.49061  -0.48824  -0.48102  -0.47715
 Alpha  occ. eigenvalues --   -0.47081  -0.46761  -0.46360  -0.46132  -0.45847
 Alpha  occ. eigenvalues --   -0.45528  -0.44874  -0.44621  -0.44104  -0.43968
 Alpha  occ. eigenvalues --   -0.43671  -0.43323  -0.42817  -0.42485  -0.42208
 Alpha  occ. eigenvalues --   -0.42017  -0.41885  -0.41536  -0.41107  -0.40543
 Alpha  occ. eigenvalues --   -0.40124  -0.39994  -0.39845  -0.39595  -0.39550
 Alpha  occ. eigenvalues --   -0.39401  -0.39313  -0.39047  -0.38862  -0.38785
 Alpha  occ. eigenvalues --   -0.38402  -0.37932  -0.37826  -0.37524  -0.37008
 Alpha  occ. eigenvalues --   -0.36793  -0.36384  -0.36094  -0.36000  -0.35456
 Alpha  occ. eigenvalues --   -0.35314  -0.34244  -0.29455  -0.28679  -0.25235
 Alpha virt. eigenvalues --   -0.10550  -0.06160  -0.03019  -0.01236  -0.00615
 Alpha virt. eigenvalues --    0.01057   0.01226   0.03416   0.05384   0.05547
 Alpha virt. eigenvalues --    0.06380   0.06901   0.07037   0.07286   0.08059

  Beta  occ. eigenvalues --  -88.05972 -88.05581 -88.05371 -24.34366 -24.34189
  Beta  occ. eigenvalues --  -24.34039 -24.34025 -24.33862 -24.33803 -24.33766
  Beta  occ. eigenvalues --  -24.33706 -24.33691 -18.87624 -18.86746 -18.86229
  Beta  occ. eigenvalues --  -18.84394 -18.84381 -18.83968 -18.83776 -18.83582
  Beta  occ. eigenvalues --  -18.83538 -18.83497 -18.83092 -18.82855 -18.82686
  Beta  occ. eigenvalues --  -18.82512 -17.80961 -14.29539 -14.21351 -14.15547
  Beta  occ. eigenvalues --  -14.15161 -11.55821 -11.55795 -11.55778 -10.33409
  Beta  occ. eigenvalues --  -10.33134 -10.33075 -10.23424 -10.20598 -10.20305
  Beta  occ. eigenvalues --  -10.18347 -10.17209 -10.15352 -10.14630 -10.14526
  Beta  occ. eigenvalues --  -10.13460 -10.12943 -10.11115 -10.10906 -10.10263
  Beta  occ. eigenvalues --  -10.07972 -10.06364 -10.05968 -10.05949 -10.05848
  Beta  occ. eigenvalues --  -10.05810  -7.95813  -7.95392  -7.95161  -6.15323
  Beta  occ. eigenvalues --   -6.15280  -6.15172  -6.14909  -6.14862  -6.14756
  Beta  occ. eigenvalues --   -6.14677  -6.14631  -6.14536  -5.40816  -5.40797
  Beta  occ. eigenvalues --   -5.40789  -5.40786  -5.40727  -2.33975  -1.37858
  Beta  occ. eigenvalues --   -1.37659  -1.37493  -1.27891  -1.27853  -1.27672
  Beta  occ. eigenvalues --   -1.27545  -1.27492  -1.27428  -1.23758  -1.23502
  Beta  occ. eigenvalues --   -1.22502  -1.19767  -1.18771  -1.18179  -1.17974
  Beta  occ. eigenvalues --   -1.16021  -1.15210  -1.11347  -1.07298  -1.06380
  Beta  occ. eigenvalues --   -1.05983  -1.05555  -1.05175  -1.04906  -1.04572
  Beta  occ. eigenvalues --   -1.04335  -1.00629  -0.98013  -0.96829  -0.93333
  Beta  occ. eigenvalues --   -0.90590  -0.88648  -0.84198  -0.80611  -0.80160
  Beta  occ. eigenvalues --   -0.79744  -0.79679  -0.78955  -0.78661  -0.78326
  Beta  occ. eigenvalues --   -0.76200  -0.74793  -0.72178  -0.71929  -0.71872
  Beta  occ. eigenvalues --   -0.71731  -0.68412  -0.67830  -0.67760  -0.67735
  Beta  occ. eigenvalues --   -0.67512  -0.67435  -0.67348  -0.66738  -0.65571
  Beta  occ. eigenvalues --   -0.64190  -0.63525  -0.62788  -0.62412  -0.62020
  Beta  occ. eigenvalues --   -0.61689  -0.61388  -0.61081  -0.60916  -0.60607
  Beta  occ. eigenvalues --   -0.60515  -0.60496  -0.60410  -0.60369  -0.60321
  Beta  occ. eigenvalues --   -0.59289  -0.58691  -0.58053  -0.57119  -0.56803
  Beta  occ. eigenvalues --   -0.56725  -0.56316  -0.56236  -0.56059  -0.55825
  Beta  occ. eigenvalues --   -0.55558  -0.55496  -0.55260  -0.55004  -0.54947
  Beta  occ. eigenvalues --   -0.54523  -0.54193  -0.54011  -0.53842  -0.53753
  Beta  occ. eigenvalues --   -0.53544  -0.53175  -0.52955  -0.52808  -0.52443
  Beta  occ. eigenvalues --   -0.51887  -0.51615  -0.51531  -0.51317  -0.51269
  Beta  occ. eigenvalues --   -0.51203  -0.50973  -0.50376  -0.49554  -0.49213
  Beta  occ. eigenvalues --   -0.49191  -0.49061  -0.48824  -0.48102  -0.47715
  Beta  occ. eigenvalues --   -0.47081  -0.46761  -0.46360  -0.46132  -0.45847
  Beta  occ. eigenvalues --   -0.45528  -0.44874  -0.44621  -0.44104  -0.43968
  Beta  occ. eigenvalues --   -0.43671  -0.43323  -0.42817  -0.42485  -0.42208
  Beta  occ. eigenvalues --   -0.42017  -0.41885  -0.41536  -0.41107  -0.40543
  Beta  occ. eigenvalues --   -0.40124  -0.39994  -0.39845  -0.39595  -0.39550
  Beta  occ. eigenvalues --   -0.39401  -0.39313  -0.39047  -0.38862  -0.38785
  Beta  occ. eigenvalues --   -0.38402  -0.37932  -0.37826  -0.37524  -0.37008
  Beta  occ. eigenvalues --   -0.36793  -0.36384  -0.36094  -0.36000  -0.35456
  Beta  occ. eigenvalues --   -0.35314  -0.34244  -0.29455  -0.28679  -0.25235
  Beta virt. eigenvalues --   -0.10550  -0.06160  -0.03019  -0.01236  -0.00615
  Beta virt. eigenvalues --    0.01057   0.01226   0.03416   0.05384   0.05547
  Beta virt. eigenvalues --    0.06380   0.06901   0.07037   0.07286   0.08059

 Mulliken charges and spin densities:
               1          2
     1  C   -0.009717   0.000000
     2  C    0.251006   0.000000
     3  C    0.266827   0.000000
     4  O   -0.339599   0.000000
     5  O   -0.300514   0.000000
     6  O   -0.293443   0.000000
     7  O   -0.256931   0.000000
     8  C    0.167692   0.000000
     9  C    0.155278   0.000000
    10  H    0.048184   0.000000
    11  H    0.042851   0.000000
    12  H    0.060837   0.000000
    13  H    0.056474   0.000000
    14  H    0.064054   0.000000
    15  H    0.055115   0.000000
    16  O   -0.455399   0.000000
    17  O   -0.458208   0.000000
    18  O   -0.447791   0.000000
    19  S    0.867386   0.000000
    20  S    0.828201   0.000000
    21  S    0.849617   0.000000
    22  O   -0.459041   0.000000
    23  O   -0.415534   0.000000
    24  O   -0.456134   0.000000
    25  O   -0.399658   0.000000
    26  O   -0.445782   0.000000
    27  O   -0.424017   0.000000
    28  C    0.428440   0.000000
    29  C    0.437809   0.000000
    30  C    0.426416   0.000000
    31  F   -0.131039   0.000000
    32  F   -0.114878   0.000000
    33  F   -0.128080   0.000000
    34  F   -0.111005   0.000000
    35  F   -0.119401   0.000000
    36  F   -0.118526   0.000000
    37  F   -0.113338   0.000000
    38  F   -0.124244   0.000000
    39  F   -0.128253   0.000000
    40  C    0.284821   0.000000
    41  C   -0.127189   0.000000
    42  C   -0.133537   0.000000
    43  C   -0.185839   0.000000
    44  C    0.037415   0.000000
    45  C    0.054235   0.000000
    46  C    0.119760   0.000000
    47  H    0.080234   0.000000
    48  H    0.095622   0.000000
    49  H    0.087633   0.000000
    50  N    0.128761   0.000000
    51  N    0.168250   0.000000
    52  N   -0.099957   0.000000
    53  N    0.024290   0.000000
    54  C    0.216708   0.000000
    55  H    0.117077   0.000000
    56  H    0.099568   0.000000
    57  C    0.048403   0.000000
    58  C    0.003468   0.000000
    59  C   -0.014545   0.000000
    60  C   -0.006979   0.000000
    61  H   -0.009766   0.000000
    62  C   -0.009951   0.000000
    63  H   -0.016089   0.000000
    64  C    0.012792   0.000000
    65  H    0.004638   0.000000
    66  H    0.007995   0.000000
    67  H    0.010831   0.000000
    68  Lu   0.537031   0.000000
    69  O   -0.291335   0.000000
 Sum of Mulliken charges =  -0.00000   0.00000

 Dipole moment (field-independent basis, Debye):
    X=            -17.0795    Y=            -12.3100    Z=             -5.6517  Tot=             21.7988
 Quadrupole moment (field-independent basis, Debye-Ang):
   XX=           -343.2653   YY=           -327.3907   ZZ=           -329.9989
   XY=              9.6991   XZ=             16.9320   YZ=              6.2014

  Exact polarizability:   0.000   0.000   0.000   0.000   0.000   0.000
 Approx polarizability: 486.700  15.123 427.777  45.123   6.076 522.252

 Normal termination of Gaussian 16 at Sat May  3 02:40:10 2025.
