 Gaussian 16, Revision A.03,
 Gaussian 16:  ES64L-G16RevA.03 25-Dec-2016

 ----------------------------------------------------------------------
 # irc=(maxpoints=100,recorrect=never,calcfc,maxcycles=500,nogradstop)
 UMN15/genecp scrf=(smd,solvent=DiChloroEthane)
 ----------------------------------------------------------------------

 -----------------------------------------------------------
 IRC for Going from i2 to i3, where we are forming bond 7-66
 -----------------------------------------------------------
 Symbolic Z-matrix:
 Charge =  0 Multiplicity = 2

 SCF Done:  E(UMN15) =  -5368.76361486     A.U. after   23 cycles
 SCF Done:  E(UMN15) =  -5368.76396090     A.U. after   17 cycles
 SCF Done:  E(UMN15) =  -5368.76482614     A.U. after   16 cycles
 SCF Done:  E(UMN15) =  -5368.76599512     A.U. after   15 cycles
 SCF Done:  E(UMN15) =  -5368.76729708     A.U. after   15 cycles
 SCF Done:  E(UMN15) =  -5368.76863884     A.U. after   15 cycles
 SCF Done:  E(UMN15) =  -5368.76996287     A.U. after   15 cycles
 SCF Done:  E(UMN15) =  -5368.77123987     A.U. after   15 cycles
 SCF Done:  E(UMN15) =  -5368.77245171     A.U. after   15 cycles
 SCF Done:  E(UMN15) =  -5368.77359147     A.U. after   15 cycles
 SCF Done:  E(UMN15) =  -5368.77329623     A.U. after   17 cycles
 SCF Done:  E(UMN15) =  -5368.77613080     A.U. after   17 cycles
 SCF Done:  E(UMN15) =  -5368.77849728     A.U. after   16 cycles
 SCF Done:  E(UMN15) =  -5368.78027690     A.U. after   16 cycles
 SCF Done:  E(UMN15) =  -5368.78152183     A.U. after   14 cycles
 SCF Done:  E(UMN15) =  -5368.78235081     A.U. after   13 cycles
 SCF Done:  E(UMN15) =  -5368.78289324     A.U. after   13 cycles
 SCF Done:  E(UMN15) =  -5368.78323155     A.U. after   15 cycles
 SCF Done:  E(UMN15) =  -5368.78309027     A.U. after   16 cycles
 SCF Done:  E(UMN15) =  -5368.78265347     A.U. after   13 cycles

                          Input orientation:
 ---------------------------------------------------------------------
 Center     Atomic      Atomic             Coordinates (Angstroms)
 Number     Number       Type             X           Y           Z
 ---------------------------------------------------------------------
      1          6           0        2.026431   -0.929957   -0.889202
      2          6           0        1.785556    0.057235    0.279682
      3          6           0        0.687338   -1.352225   -1.524703
      4          8           0       -0.196579   -0.552880   -1.748890
      5          8           0        0.827208    0.792789    0.376351
      6          8           0        2.763960    0.008225    1.144034
      7          8           0        0.664986   -2.608845   -1.874954
      8          6           0        2.728911    0.921278    2.251578
      9          6           0       -0.572442   -3.085589   -2.436330
     10          1           0        3.687128    0.803196    2.773399
     11          1           0        1.891704    0.650487    2.909846
     12          1           0        2.612440    1.948271    1.876589
     13          1           0       -0.414067   -4.141531   -2.676673
     14          1           0       -0.820823   -2.512070   -3.338964
     15          1           0       -1.367551   -2.965549   -1.688267
     16          8           0       -3.046910   -1.546076   -0.434105
     17          8           0       -1.350127   -0.392084    2.348442
     18          8           0       -1.215323    2.725419   -1.035544
     19         16           0       -1.664833    3.542219    0.116239
     20         16           0       -3.685162   -1.050804   -1.682262
     21         16           0       -0.436675   -1.540709    2.182848
     22          8           0       -1.981055    2.642315    1.256107
     23          8           0       -2.608840    4.604865   -0.159870
     24          8           0       -3.254610    0.344908   -1.933698
     25          8           0       -3.693877   -1.958189   -2.812032
     26          8           0       -0.219030   -1.832933    0.744608
     27          8           0        0.763785   -1.537294    3.006602
     28          6           0       -1.385439   -3.001631    2.759067
     29          6           0       -5.446635   -0.864016   -1.198601
     30          6           0       -0.152681    4.427136    0.672227
     31          9           0       -0.666564   -4.092007    2.520743
     32          9           0       -2.534062   -3.089061    2.117403
     33          9           0       -1.609473   -2.905954    4.057996
     34          9           0       -5.534687   -0.057387   -0.148271
     35          9           0       -5.956908   -2.043205   -0.879997
     36          9           0       -6.140603   -0.346879   -2.199224
     37          9           0        0.755220    3.577403    1.126333
     38          9           0       -0.466755    5.275491    1.639129
     39          9           0        0.361768    5.106543   -0.344946
     40          6           0        4.049599    0.065978   -1.902084
     41          6           0        4.856983   -1.236040   -1.571408
     42          6           0        6.313709   -1.058550   -1.462632
     43          6           0        4.621630   -2.192652   -2.677912
     44          6           0        2.468604   -2.880125    0.833077
     45          6           0        4.531317   -2.233401    1.868665
     46          6           0        3.276912   -2.887179    1.936190
     47          1           0        1.497820   -3.376326    0.822270
     48          1           0        5.181366   -2.129270    2.739615
     49          1           0        2.965785   -3.379682    2.858970
     50          7           0        7.464262   -0.946161   -1.459035
     51          7           0        4.454847   -2.918197   -3.562514
     52          7           0        4.285275   -1.781112   -0.328566
     53          7           0        5.020780   -1.743742    0.735154
     54          6           0        2.898140   -2.201138   -0.402536
     55          1           0        2.780356   -2.874525   -1.250322
     56          1           0        4.307192    0.332890   -2.938362
     57          6           0        4.257913    1.280447   -1.017821
     58          6           0        3.358365    2.332559   -1.246737
     59          6           0        5.268129    1.436052   -0.060816
     60          6           0        3.480512    3.531908   -0.546802
     61          1           0        2.559552    2.208230   -1.982728
     62          6           0        5.388126    2.641806    0.635958
     63          1           0        5.971577    0.636877    0.172618
     64          6           0        4.502907    3.692351    0.391727
     65          1           0        2.773719    4.340420   -0.738295
     66          1           0        6.182559    2.754047    1.376724
     67          1           0        4.603611    4.633508    0.936379
     68         70           0       -1.683509    0.495245    0.037114
     69          8           0        2.694587   -0.350369   -1.980257
 ---------------------------------------------------------------------

 Alpha  occ. eigenvalues --  -88.04901 -88.03573 -88.03440 -24.33598 -24.33399
 Alpha  occ. eigenvalues --  -24.33329 -24.32881 -24.32870 -24.32864 -24.32685
 Alpha  occ. eigenvalues --  -24.32680 -24.32665 -18.90715 -18.90320 -18.90225
 Alpha  occ. eigenvalues --  -18.85725 -18.84883 -18.82908 -18.82829 -18.82226
 Alpha  occ. eigenvalues --  -18.81633 -18.81518 -18.81496 -18.81360 -18.80925
 Alpha  occ. eigenvalues --  -18.80557 -16.28836 -14.28807 -14.22642 -14.15835
 Alpha  occ. eigenvalues --  -14.15649 -10.92220 -10.92182 -10.92151 -10.32504
 Alpha  occ. eigenvalues --  -10.31571 -10.31510 -10.24188 -10.23834 -10.23763
 Alpha  occ. eigenvalues --  -10.20658 -10.18501 -10.17950 -10.16259 -10.15026
 Alpha  occ. eigenvalues --  -10.14931 -10.14407 -10.12049 -10.11842 -10.11277
 Alpha  occ. eigenvalues --  -10.09124 -10.07586 -10.07221 -10.06824 -10.06689
 Alpha  occ. eigenvalues --  -10.06651  -7.94619  -7.93341  -7.93214  -6.14130
 Alpha  occ. eigenvalues --   -6.14088  -6.14027  -6.12839  -6.12811  -6.12753
 Alpha  occ. eigenvalues --   -6.12714  -6.12688  -6.12625  -5.00500  -5.00489
 Alpha  occ. eigenvalues --   -5.00454  -5.00422  -5.00403  -1.96054  -1.37129
 Alpha  occ. eigenvalues --   -1.36405  -1.36330  -1.27121  -1.27097  -1.26421
 Alpha  occ. eigenvalues --   -1.26337  -1.26333  -1.26323  -1.20387  -1.18925
 Alpha  occ. eigenvalues --   -1.18714  -1.18325  -1.17746  -1.17577  -1.15110
 Alpha  occ. eigenvalues --   -1.09963  -1.08667  -1.05596  -1.05058  -1.04563
 Alpha  occ. eigenvalues --   -1.04351  -1.03363  -1.03022  -1.01274  -1.00943
 Alpha  occ. eigenvalues --   -1.00246  -1.00147  -0.98328  -0.97340  -0.94799
 Alpha  occ. eigenvalues --   -0.91666  -0.89579  -0.85376  -0.82619  -0.80826
 Alpha  occ. eigenvalues --   -0.79702  -0.79457  -0.79261  -0.78331  -0.78267
 Alpha  occ. eigenvalues --   -0.77490  -0.76291  -0.72795  -0.71342  -0.70490
 Alpha  occ. eigenvalues --   -0.70434  -0.68692  -0.67598  -0.67128  -0.67024
 Alpha  occ. eigenvalues --   -0.66610  -0.66500  -0.66366  -0.66352  -0.66302
 Alpha  occ. eigenvalues --   -0.66159  -0.65158  -0.63948  -0.63158  -0.62888
 Alpha  occ. eigenvalues --   -0.62111  -0.61103  -0.59613  -0.59530  -0.59358
 Alpha  occ. eigenvalues --   -0.58677  -0.57924  -0.57636  -0.56951  -0.56795
 Alpha  occ. eigenvalues --   -0.56285  -0.55767  -0.55340  -0.55022  -0.54691
 Alpha  occ. eigenvalues --   -0.54583  -0.54436  -0.54427  -0.53906  -0.53753
 Alpha  occ. eigenvalues --   -0.53306  -0.53075  -0.52793  -0.52664  -0.52526
 Alpha  occ. eigenvalues --   -0.52219  -0.52003  -0.51950  -0.51760  -0.51642
 Alpha  occ. eigenvalues --   -0.51070  -0.50832  -0.50476  -0.50409  -0.50208
 Alpha  occ. eigenvalues --   -0.50158  -0.50100  -0.50030  -0.49857  -0.48849
 Alpha  occ. eigenvalues --   -0.48588  -0.48032  -0.48004  -0.47923  -0.47821
 Alpha  occ. eigenvalues --   -0.47235  -0.46883  -0.46232  -0.45895  -0.45724
 Alpha  occ. eigenvalues --   -0.44897  -0.44305  -0.43826  -0.43784  -0.43397
 Alpha  occ. eigenvalues --   -0.42919  -0.42543  -0.42416  -0.42255  -0.41874
 Alpha  occ. eigenvalues --   -0.41828  -0.41474  -0.41090  -0.40781  -0.40310
 Alpha  occ. eigenvalues --   -0.39995  -0.39592  -0.39518  -0.39064  -0.38993
 Alpha  occ. eigenvalues --   -0.38414  -0.38174  -0.38149  -0.37792  -0.37300
 Alpha  occ. eigenvalues --   -0.37218  -0.37060  -0.37015  -0.36086  -0.35610
 Alpha  occ. eigenvalues --   -0.35277  -0.34928  -0.34321  -0.33434  -0.33128
 Alpha  occ. eigenvalues --   -0.30465  -0.30398  -0.30198  -0.27134  -0.27115
 Alpha  occ. eigenvalues --   -0.27061  -0.27035  -0.27005  -0.26932  -0.26863
 Alpha virt. eigenvalues --   -0.09856  -0.03994  -0.02941  -0.01575  -0.00459
 Alpha virt. eigenvalues --   -0.00031   0.01008   0.02815   0.04109   0.05217
 Alpha virt. eigenvalues --    0.06209   0.07589   0.08315   0.08726   0.09190

  Beta  occ. eigenvalues --  -88.04901 -88.03573 -88.03440 -24.33598 -24.33399
  Beta  occ. eigenvalues --  -24.33329 -24.32881 -24.32870 -24.32863 -24.32685
  Beta  occ. eigenvalues --  -24.32680 -24.32665 -18.90712 -18.90275 -18.90219
  Beta  occ. eigenvalues --  -18.85709 -18.84874 -18.82903 -18.82828 -18.82212
  Beta  occ. eigenvalues --  -18.81633 -18.81518 -18.81496 -18.81360 -18.80925
  Beta  occ. eigenvalues --  -18.80557 -16.28836 -14.28289 -14.22553 -14.15836
  Beta  occ. eigenvalues --  -14.15649 -10.92220 -10.92181 -10.92150 -10.32503
  Beta  occ. eigenvalues --  -10.31571 -10.31510 -10.24189 -10.23838 -10.23774
  Beta  occ. eigenvalues --  -10.20531 -10.18475 -10.17975 -10.16126 -10.15022
  Beta  occ. eigenvalues --  -10.14919 -10.14216 -10.12072 -10.11841 -10.11277
  Beta  occ. eigenvalues --  -10.09124 -10.07586 -10.07220 -10.06824 -10.06689
  Beta  occ. eigenvalues --  -10.06651  -7.94619  -7.93341  -7.93214  -6.14130
  Beta  occ. eigenvalues --   -6.14088  -6.14027  -6.12839  -6.12811  -6.12753
  Beta  occ. eigenvalues --   -6.12714  -6.12688  -6.12625  -5.00499  -5.00489
  Beta  occ. eigenvalues --   -5.00454  -5.00422  -5.00402  -1.96053  -1.37129
  Beta  occ. eigenvalues --   -1.36405  -1.36330  -1.27121  -1.27097  -1.26421
  Beta  occ. eigenvalues --   -1.26337  -1.26333  -1.26323  -1.20209  -1.18859
  Beta  occ. eigenvalues --   -1.18700  -1.17746  -1.17583  -1.17559  -1.14823
  Beta  occ. eigenvalues --   -1.09937  -1.08649  -1.05582  -1.05057  -1.04555
  Beta  occ. eigenvalues --   -1.04350  -1.03362  -1.03022  -1.01006  -1.00916
  Beta  occ. eigenvalues --   -1.00245  -1.00146  -0.98311  -0.96723  -0.94335
  Beta  occ. eigenvalues --   -0.91470  -0.89190  -0.85000  -0.82536  -0.80783
  Beta  occ. eigenvalues --   -0.79459  -0.79306  -0.78761  -0.78329  -0.78267
  Beta  occ. eigenvalues --   -0.77424  -0.75839  -0.72540  -0.71334  -0.70490
  Beta  occ. eigenvalues --   -0.70434  -0.68207  -0.67289  -0.67105  -0.67020
  Beta  occ. eigenvalues --   -0.66514  -0.66431  -0.66352  -0.66345  -0.66302
  Beta  occ. eigenvalues --   -0.65948  -0.64923  -0.63557  -0.62877  -0.62827
  Beta  occ. eigenvalues --   -0.61880  -0.61052  -0.59604  -0.59370  -0.59329
  Beta  occ. eigenvalues --   -0.58313  -0.57768  -0.57444  -0.56865  -0.56591
  Beta  occ. eigenvalues --   -0.55782  -0.55476  -0.55262  -0.55003  -0.54688
  Beta  occ. eigenvalues --   -0.54582  -0.54435  -0.54421  -0.53741  -0.53513
  Beta  occ. eigenvalues --   -0.53259  -0.53047  -0.52785  -0.52634  -0.52512
  Beta  occ. eigenvalues --   -0.52013  -0.51958  -0.51763  -0.51704  -0.51462
  Beta  occ. eigenvalues --   -0.51003  -0.50804  -0.50366  -0.50196  -0.50138
  Beta  occ. eigenvalues --   -0.50085  -0.50039  -0.49983  -0.49566  -0.48787
  Beta  occ. eigenvalues --   -0.48586  -0.48004  -0.47923  -0.47756  -0.47471
  Beta  occ. eigenvalues --   -0.47203  -0.46824  -0.46204  -0.45855  -0.45692
  Beta  occ. eigenvalues --   -0.44663  -0.44067  -0.43759  -0.43610  -0.43317
  Beta  occ. eigenvalues --   -0.42800  -0.42425  -0.42244  -0.42048  -0.41823
  Beta  occ. eigenvalues --   -0.41735  -0.41438  -0.40871  -0.40347  -0.39997
  Beta  occ. eigenvalues --   -0.39865  -0.39467  -0.39284  -0.39008  -0.38660
  Beta  occ. eigenvalues --   -0.38318  -0.38102  -0.37585  -0.37392  -0.37215
  Beta  occ. eigenvalues --   -0.37126  -0.37043  -0.36995  -0.35942  -0.35487
  Beta  occ. eigenvalues --   -0.35229  -0.34884  -0.34262  -0.33434  -0.33126
  Beta  occ. eigenvalues --   -0.30403  -0.30238  -0.27133  -0.27114  -0.27058
  Beta  occ. eigenvalues --   -0.27033  -0.27002  -0.26931  -0.26863
  Beta virt. eigenvalues --   -0.17716  -0.07618  -0.03819  -0.02788  -0.01537
  Beta virt. eigenvalues --   -0.00399  -0.00037   0.01006   0.03205   0.04944
  Beta virt. eigenvalues --    0.05629   0.06269   0.07739   0.08314   0.08740

 Mulliken charges and spin densities:
               1          2
     1  C   -0.046126   0.089123
     2  C    0.188869  -0.003293
     3  C    0.302114  -0.003576
     4  O   -0.206374   0.004111
     5  O   -0.167041   0.007412
     6  O   -0.246700   0.000990
     7  O   -0.260493   0.001649
     8  C    0.170905   0.001236
     9  C    0.160394   0.000072
    10  H    0.061144  -0.000599
    11  H    0.070212   0.000075
    12  H    0.048499   0.000112
    13  H    0.069141   0.000134
    14  H    0.070752   0.000009
    15  H    0.053597   0.000187
    16  O   -0.466617   0.000040
    17  O   -0.454885   0.000119
    18  O   -0.469298   0.000012
    19  S    0.843707  -0.000001
    20  S    0.835400  -0.000017
    21  S    0.843887  -0.000910
    22  O   -0.481122   0.000029
    23  O   -0.447600   0.000007
    24  O   -0.471702   0.000050
    25  O   -0.445368   0.000002
    26  O   -0.488781   0.001537
    27  O   -0.447535   0.004299
    28  C    0.420611   0.000358
    29  C    0.408339   0.000006
    30  C    0.406257  -0.000001
    31  F   -0.138642   0.000006
    32  F   -0.115481   0.000005
    33  F   -0.131454  -0.000000
    34  F   -0.134811   0.000000
    35  F   -0.137268   0.000000
    36  F   -0.135438   0.000000
    37  F   -0.119702   0.000002
    38  F   -0.136798   0.000000
    39  F   -0.137145   0.000000
    40  C    0.287932   0.021810
    41  C   -0.185716  -0.028219
    42  C   -0.146884   0.004165
    43  C   -0.122707   0.011753
    44  C    0.099245   0.336851
    45  C    0.083309   0.200778
    46  C    0.091940  -0.047410
    47  H    0.068019  -0.019526
    48  H    0.101705  -0.014013
    49  H    0.077259   0.000905
    50  N    0.153489   0.000214
    51  N    0.147986  -0.001003
    52  N   -0.122256   0.344485
    53  N    0.038832   0.077174
    54  C    0.208902  -0.063133
    55  H    0.114729   0.052035
    56  H    0.118207   0.002562
    57  C   -0.021611  -0.000092
    58  C    0.017421   0.000155
    59  C    0.000819  -0.001151
    60  C    0.003828  -0.000067
    61  H    0.024192   0.000079
    62  C   -0.000440   0.000500
    63  H   -0.003095  -0.000242
    64  C    0.029913  -0.000160
    65  H    0.007152   0.000029
    66  H    0.015950  -0.000004
    67  H    0.019240   0.000009
    68  Yb   0.518280  -0.000023
    69  O   -0.293085   0.018353
 Sum of Mulliken charges =  -0.00000   1.00000

 Dipole moment (field-independent basis, Debye):
    X=             24.1071    Y=            -10.4426    Z=              5.7191  Tot=             26.8869
 Quadrupole moment (field-independent basis, Debye-Ang):
   XX=           -331.4541   YY=           -337.2844   ZZ=           -343.8731
   XY=              3.1505   XZ=             14.9936   YZ=             -8.3957

  Exact polarizability:   0.000   0.000   0.000   0.000   0.000   0.000
 Approx polarizability: 483.190 -12.301 456.724  47.303  16.620 462.032

 Normal termination of Gaussian 16 at Thu Mar 20 20:44:24 2025.
