 Gaussian 16, Revision A.03,
 Gaussian 16:  ES64L-G16RevA.03 25-Dec-2016

 ----------------------------------------------------------------------
 # irc=(maxpoints=100,recorrect=never,calcfc,maxcycles=500,nogradstop)
 MN15/gen scrf=(smd,solvent=DiChloroEthane)
 ----------------------------------------------------------------------

 -----------------------------------------------------------
 IRC for Going from i2 to i3, where we are forming bond 7-66
 -----------------------------------------------------------
 Symbolic Z-matrix:
 Charge =  0 Multiplicity = 1

 SCF Done:  E(RMN15) =  -4781.71053552     A.U. after   15 cycles
 SCF Done:  E(RMN15) =  -4781.71084472     A.U. after   12 cycles
 SCF Done:  E(RMN15) =  -4781.71169431     A.U. after   12 cycles
 SCF Done:  E(RMN15) =  -4781.71289228     A.U. after   12 cycles
 SCF Done:  E(RMN15) =  -4781.71414227     A.U. after   12 cycles
 SCF Done:  E(RMN15) =  -4781.71502940     A.U. after   12 cycles
 SCF Done:  E(RMN15) =  -4781.71533801     A.U. after   11 cycles
 SCF Done:  E(RMN15) =  -4781.71546265     A.U. after   10 cycles
 SCF Done:  E(RMN15) =  -4781.71532529     A.U. after   11 cycles
 SCF Done:  E(RMN15) =  -4781.71534357     A.U. after   11 cycles
 SCF Done:  E(RMN15) =  -4781.73303230     A.U. after   10 cycles
 SCF Done:  E(RMN15) =  -4781.73311883     A.U. after   10 cycles
 SCF Done:  E(RMN15) =  -4781.73320480     A.U. after   10 cycles
 SCF Done:  E(RMN15) =  -4781.73335525     A.U. after   10 cycles
 SCF Done:  E(RMN15) =  -4781.73345270     A.U. after   10 cycles
 SCF Done:  E(RMN15) =  -4781.73355384     A.U. after   10 cycles
 SCF Done:  E(RMN15) =  -4781.73363626     A.U. after   10 cycles
 SCF Done:  E(RMN15) =  -4781.73369661     A.U. after   10 cycles
 SCF Done:  E(RMN15) =  -4781.73373812     A.U. after   10 cycles
 SCF Done:  E(RMN15) =  -4781.73362301     A.U. after   11 cycles

                          Input orientation:
 ---------------------------------------------------------------------
 Center     Atomic      Atomic             Coordinates (Angstroms)
 Number     Number       Type             X           Y           Z
 ---------------------------------------------------------------------
      1          6           0        5.951620   -0.528533    0.492706
      2          6           0        6.233660   -0.928251    1.808197
      3          6           0        7.468795   -1.496264    2.124972
      4          6           0        8.434205   -1.677563    1.132264
      5          6           0        8.161213   -1.285052   -0.180144
      6          6           0        6.928285   -0.712487   -0.495977
      7          6           0        2.011836   -0.404424    0.310393
      8          6           0        1.579594   -0.525829   -1.030744
      9          6           0        1.077444   -0.060527    1.332604
     10          1           0        5.491177   -0.802714    2.599240
     11          1           0        7.673980   -1.802438    3.152975
     12          1           0        9.398675   -2.126304    1.380099
     13          1           0        8.909484   -1.424779   -0.963391
     14          1           0        6.715379   -0.401590   -1.523048
     15          8           0       -0.141876    0.197317    1.100159
     16          8           0        0.389735   -0.233415   -1.424259
     17          8           0       -3.559614    1.405956    2.313462
     18          8           0       -2.489857    0.790102   -2.130351
     19          8           0       -0.720042   -2.343213    0.113361
     20         16           0       -1.540585   -3.014696   -0.934907
     21         16           0       -3.292723   -0.019942    2.262572
     22         16           0       -2.493022    2.158793   -1.529623
     23          8           0       -2.282283   -1.906806   -1.614456
     24          8           0       -2.277049   -4.196316   -0.568304
     25          8           0       -2.964167   -0.502341    0.863247
     26          8           0       -2.449773   -0.613522    3.282872
     27          8           0       -1.722793    2.008308   -0.257906
     28          8           0       -2.148439    3.273673   -2.380334
     29          6           0       -4.243668    2.439353   -1.015887
     30          6           0       -4.927032   -0.832729    2.469693
     31          6           0       -0.308314   -3.560327   -2.218453
     32          9           0       -4.278160    3.417092   -0.133279
     33          9           0       -4.742484    1.338861   -0.496103
     34          9           0       -4.940524    2.780313   -2.084876
     35          9           0       -4.798237   -2.146134    2.362994
     36          9           0       -5.776205   -0.405238    1.548871
     37          9           0       -5.407744   -0.542068    3.669589
     38          9           0       -0.207537   -2.645722   -3.165893
     39          9           0       -0.708799   -4.697498   -2.750862
     40          9           0        0.872960   -3.728727   -1.647674
     41          6           0        4.612354    0.081211    0.110599
     42          1           0        4.555952    0.087878   -0.988531
     43          6           0        4.614953    1.619955    0.465303
     44          6           0        5.775884    2.261878   -0.184819
     45          6           0        4.703349    1.829501    1.918580
     46          6           0        1.177978    3.099190    0.058766
     47          6           0        2.281315    2.665899   -2.022553
     48          6           0        1.125334    3.073101   -1.324215
     49          1           0        0.327004    3.387669    0.668085
     50          1           0        2.317509    2.650335   -3.111429
     51          1           0        0.223615    3.357467   -1.868803
     52          7           0        6.695811    2.736967   -0.699524
     53          7           0        4.772247    1.948556    3.067117
     54          7           0        3.381792    2.276171   -0.087322
     55          7           0        3.374738    2.260167   -1.410019
     56          6           0        2.362435    2.687809    0.675723
     57          1           0        2.487994    2.666211    1.759663
     58         21           0       -1.402904   -0.229979   -0.451742
     59          6           0        3.441202   -0.731533    0.703384
     60          1           0        3.675494   -1.775637    0.431652
     61          1           0        3.525274   -0.701582    1.798173
     62          6           0        2.501475   -1.017851   -2.112001
     63          1           0        2.999406   -0.164912   -2.601721
     64          1           0        3.277989   -1.697002   -1.735549
     65          1           0        1.906594   -1.522126   -2.881746
     66          6           0        1.468346   -0.009183    2.784432
     67          1           0        1.753354   -1.019724    3.129573
     68          1           0        2.323035    0.651259    2.977917
     69          1           0        0.598404    0.326839    3.362753
 ---------------------------------------------------------------------

 Alpha  occ. eigenvalues -- -160.18317 -88.06253 -88.05615 -88.03410 -24.34040
 Alpha  occ. eigenvalues --  -24.33981 -24.33913 -24.33901 -24.33878 -24.33808
 Alpha  occ. eigenvalues --  -24.32380 -24.32352 -24.32320 -18.84830 -18.84814
 Alpha  occ. eigenvalues --  -18.84043 -18.84025 -18.83879 -18.83070 -18.82798
 Alpha  occ. eigenvalues --  -18.82763 -18.82659 -18.80346 -18.80298 -17.16987
 Alpha  occ. eigenvalues --  -14.47183 -14.47083 -14.46984 -14.29589 -14.21664
 Alpha  occ. eigenvalues --  -14.15976 -14.14872 -10.33659 -10.33294 -10.31169
 Alpha  occ. eigenvalues --  -10.23236 -10.18541 -10.15882 -10.15793 -10.15691
 Alpha  occ. eigenvalues --  -10.14990 -10.14151 -10.13522 -10.13186 -10.11591
 Alpha  occ. eigenvalues --  -10.08025 -10.07927 -10.06676 -10.06624 -10.06238
 Alpha  occ. eigenvalues --  -10.06207 -10.06184 -10.06050 -10.05601 -10.05423
 Alpha  occ. eigenvalues --   -7.96140  -7.95413  -7.93192  -6.15651  -6.15613
 Alpha  occ. eigenvalues --   -6.15477  -6.14923  -6.14883  -6.14780  -6.12790
 Alpha  occ. eigenvalues --   -6.12607  -6.12576  -2.13666  -1.38507  -1.38292
 Alpha  occ. eigenvalues --   -1.38046  -1.37784  -1.37703  -1.35991  -1.27810
 Alpha  occ. eigenvalues --   -1.27672  -1.27671  -1.27631  -1.25989  -1.25940
 Alpha  occ. eigenvalues --   -1.20629  -1.19683  -1.18001  -1.17070  -1.08544
 Alpha  occ. eigenvalues --   -1.07572  -1.06720  -1.06449  -1.05547  -1.04758
 Alpha  occ. eigenvalues --   -1.03387  -1.03301  -1.00993  -0.98003  -0.96945
 Alpha  occ. eigenvalues --   -0.93647  -0.91598  -0.88788  -0.86044  -0.81827
 Alpha  occ. eigenvalues --   -0.80215  -0.79638  -0.79128  -0.78818  -0.78683
 Alpha  occ. eigenvalues --   -0.78002  -0.76637  -0.75753  -0.74505  -0.72148
 Alpha  occ. eigenvalues --   -0.71801  -0.70246  -0.69410  -0.68403  -0.67689
 Alpha  occ. eigenvalues --   -0.67675  -0.67625  -0.67581  -0.66344  -0.66019
 Alpha  occ. eigenvalues --   -0.65942  -0.64618  -0.63685  -0.63243  -0.62840
 Alpha  occ. eigenvalues --   -0.61908  -0.61672  -0.60829  -0.59671  -0.58305
 Alpha  occ. eigenvalues --   -0.57417  -0.57005  -0.56581  -0.56292  -0.56213
 Alpha  occ. eigenvalues --   -0.55872  -0.55684  -0.55400  -0.55148  -0.54993
 Alpha  occ. eigenvalues --   -0.54366  -0.54316  -0.54048  -0.53891  -0.53836
 Alpha  occ. eigenvalues --   -0.53488  -0.53352  -0.52962  -0.52623  -0.51934
 Alpha  occ. eigenvalues --   -0.51780  -0.51621  -0.51564  -0.51418  -0.51104
 Alpha  occ. eigenvalues --   -0.50762  -0.50646  -0.50168  -0.49926  -0.49471
 Alpha  occ. eigenvalues --   -0.49146  -0.49103  -0.48906  -0.48152  -0.48090
 Alpha  occ. eigenvalues --   -0.47858  -0.47551  -0.47322  -0.46738  -0.46458
 Alpha  occ. eigenvalues --   -0.46290  -0.45863  -0.45472  -0.45008  -0.44801
 Alpha  occ. eigenvalues --   -0.44188  -0.43743  -0.43363  -0.43287  -0.42869
 Alpha  occ. eigenvalues --   -0.42459  -0.42157  -0.42098  -0.41993  -0.41773
 Alpha  occ. eigenvalues --   -0.41464  -0.41354  -0.41026  -0.40667  -0.40139
 Alpha  occ. eigenvalues --   -0.40075  -0.39679  -0.39568  -0.39398  -0.39209
 Alpha  occ. eigenvalues --   -0.38721  -0.38543  -0.38121  -0.37785  -0.37750
 Alpha  occ. eigenvalues --   -0.37059  -0.36905  -0.36538  -0.36350  -0.35923
 Alpha  occ. eigenvalues --   -0.34856  -0.32703  -0.31642  -0.29877  -0.29817
 Alpha  occ. eigenvalues --   -0.27588
 Alpha virt. eigenvalues --   -0.10765  -0.06736  -0.04533  -0.03300  -0.00598
 Alpha virt. eigenvalues --    0.00233   0.00508   0.00843   0.00939   0.02917
 Alpha virt. eigenvalues --    0.03649   0.03757   0.05224   0.06493   0.07704

 Mulliken charges:
               1
     1  C   -0.024826
     2  C   -0.004264
     3  C    0.003131
     4  C    0.015623
     5  C    0.004704
     6  C   -0.000742
     7  C   -0.097142
     8  C   -0.013663
     9  C    0.030522
    10  H    0.009013
    11  H    0.013320
    12  H    0.016773
    13  H    0.013833
    14  H    0.006984
    15  O   -0.291203
    16  O   -0.339830
    17  O   -0.449634
    18  O   -0.438883
    19  O   -0.425127
    20  S    0.881348
    21  S    0.899193
    22  S    0.857933
    23  O   -0.446201
    24  O   -0.396935
    25  O   -0.516314
    26  O   -0.456499
    27  O   -0.428607
    28  O   -0.402530
    29  C    0.441028
    30  C    0.392438
    31  C    0.427497
    32  F   -0.118577
    33  F   -0.100392
    34  F   -0.125625
    35  F   -0.136065
    36  F   -0.134836
    37  F   -0.142896
    38  F   -0.112374
    39  F   -0.119990
    40  F   -0.124611
    41  C    0.037161
    42  H    0.019671
    43  C   -0.076733
    44  C   -0.134204
    45  C   -0.191043
    46  C    0.070298
    47  C    0.077615
    48  C    0.098675
    49  H    0.098049
    50  H    0.099752
    51  H    0.059911
    52  N    0.140561
    53  N    0.152737
    54  N   -0.098609
    55  N    0.006635
    56  C    0.218102
    57  H    0.113396
    58  Sc   0.386373
    59  C    0.170860
    60  H    0.055874
    61  H    0.005110
    62  C    0.114600
    63  H    0.067951
    64  H    0.047741
    65  H    0.037092
    66  C    0.108200
    67  H    0.081759
    68  H    0.027072
    69  H    0.039823
 Sum of Mulliken charges =  -0.00000

 Dipole moment (field-independent basis, Debye):
    X=             22.4010    Y=              7.9044    Z=             -3.7212  Tot=             24.0443
 Quadrupole moment (field-independent basis, Debye-Ang):
   XX=           -323.3809   YY=           -318.9907   ZZ=           -328.5939
   XY=            -14.6852   XZ=              7.7264   YZ=             -2.8167

  Exact polarizability:   0.000   0.000   0.000   0.000   0.000   0.000
 Approx polarizability: 509.685 -41.951 397.585   0.533 -14.622 533.578

 Normal termination of Gaussian 16 at Sun Mar  2 19:49:14 2025.
