 Gaussian 16, Revision A.03,
 Gaussian 16:  ES64L-G16RevA.03 25-Dec-2016

 ----------------------------------------------------------------------
 # irc=(maxpoints=100,recorrect=never,calcfc,maxcycles=500,nogradstop)
 UMN15/genecp scrf=(smd,solvent=DiChloroEthane)
 ----------------------------------------------------------------------

 -----------------------------------------------------------
 IRC for Going from i2 to i3, where we are forming bond 7-56
 -----------------------------------------------------------
 Symbolic Z-matrix:
 Charge =  0 Multiplicity = 2

 SCF Done:  E(UMN15) =  -5218.53710649     A.U. after   24 cycles
 SCF Done:  E(UMN15) =  -5218.53739571     A.U. after   15 cycles
 SCF Done:  E(UMN15) =  -5218.53815849     A.U. after   15 cycles
 SCF Done:  E(UMN15) =  -5218.53924953     A.U. after   15 cycles
 SCF Done:  E(UMN15) =  -5218.54053328     A.U. after   15 cycles
 SCF Done:  E(UMN15) =  -5218.54191968     A.U. after   15 cycles
 SCF Done:  E(UMN15) =  -5218.54334207     A.U. after   14 cycles
 SCF Done:  E(UMN15) =  -5218.54476108     A.U. after   14 cycles
 SCF Done:  E(UMN15) =  -5218.54614650     A.U. after   14 cycles
 SCF Done:  E(UMN15) =  -5218.54748033     A.U. after   14 cycles
 SCF Done:  E(UMN15) =  -5218.55725305     A.U. after   15 cycles
 SCF Done:  E(UMN15) =  -5218.55729586     A.U. after   15 cycles
 SCF Done:  E(UMN15) =  -5218.55742840     A.U. after   15 cycles
 SCF Done:  E(UMN15) =  -5218.55751250     A.U. after   14 cycles
 SCF Done:  E(UMN15) =  -5218.55756658     A.U. after   14 cycles
 SCF Done:  E(UMN15) =  -5218.55762752     A.U. after   14 cycles
 SCF Done:  E(UMN15) =  -5218.55768166     A.U. after   13 cycles
 SCF Done:  E(UMN15) =  -5218.55772099     A.U. after   13 cycles
 SCF Done:  E(UMN15) =  -5218.55772780     A.U. after   15 cycles
 SCF Done:  E(UMN15) =  -5218.55760229     A.U. after   14 cycles

                          Input orientation:
 ---------------------------------------------------------------------
 Center     Atomic      Atomic             Coordinates (Angstroms)
 Number     Number       Type             X           Y           Z
 ---------------------------------------------------------------------
      1          6           0        1.893836   -0.974140   -0.643678
      2          6           0        1.716822    0.069641    0.523548
      3          6           0        0.516572   -1.361236   -1.297281
      4          8           0       -0.209763   -0.439715   -1.605273
      5          8           0        0.701324    0.731387    0.577654
      6          8           0       -2.833745   -1.516204   -0.671204
      7          8           0       -1.681568   -0.259623    2.426094
      8          8           0       -0.970561    2.823508   -0.913131
      9         16           0       -1.225788    3.690462    0.263702
     10         16           0       -3.331084   -1.021535   -1.977577
     11         16           0       -0.768238   -1.420113    2.388899
     12          8           0       -1.615573    2.852287    1.420945
     13          8           0       -2.008613    4.887580    0.027229
     14          8           0       -3.035008    0.423402   -2.112865
     15          8           0       -3.077745   -1.863211   -3.131658
     16          8           0       -0.437773   -1.796024    0.995326
     17          8           0        0.365729   -1.395659    3.303421
     18          6           0       -1.776927   -2.842821    2.958914
     19          6           0       -5.153455   -1.049601   -1.755665
     20          6           0        0.428629    4.350871    0.719215
     21          9           0       -1.056078   -3.949458    2.820252
     22          9           0       -2.877316   -2.948972    2.236787
     23          9           0       -2.099890   -2.694948    4.232424
     24          9           0       -5.483317   -0.304959   -0.705952
     25          9           0       -5.566892   -2.290416   -1.546795
     26          9           0       -5.757563   -0.567273   -2.830079
     27          9           0        1.244487    3.391261    1.125052
     28          9           0        0.294624    5.236497    1.695550
     29          9           0        0.965900    4.953786   -0.335412
     30          6           0        3.870643   -0.145244   -1.900218
     31          6           0        4.559725   -1.537098   -1.703053
     32          6           0        6.021500   -1.522479   -1.861481
     33          6           0        4.000552   -2.452987   -2.724523
     34          6           0        2.416673   -2.788836    1.148069
     35          6           0        4.755172   -2.842104    1.649143
     36          6           0        3.410596   -3.098384    2.024442
     37          1           0        1.362733   -2.956237    1.382128
     38          1           0        5.601011   -3.073407    2.312564
     39          1           0        3.188731   -3.530507    3.000450
     40          7           0        7.157240   -1.517083   -2.076083
     41          7           0        3.532484   -3.177654   -3.494330
     42          7           0        4.155441   -2.041655   -0.376226
     43          7           0        5.086075   -2.331441    0.468808
     44          6           0        2.722020   -2.241013   -0.192210
     45          1           0        2.432248   -3.029971   -0.919604
     46          1           0        4.018618    0.119865   -2.958554
     47          6           0        4.344699    1.003157   -1.033588
     48          6           0        3.587970    2.181911   -1.133923
     49          6           0        5.463677    0.972456   -0.193332
     50          6           0        3.954300    3.314951   -0.409799
     51          1           0        2.705900    2.206285   -1.780127
     52          6           0        5.822132    2.108516    0.536146
     53          1           0        6.064331    0.070258   -0.067225
     54          6           0        5.072259    3.280115    0.428126
     55          1           0        3.361231    4.225917   -0.497699
     56          1           0        6.693944    2.071589    1.192173
     57          1           0        5.358595    4.168088    0.995583
     58         70           0       -1.755649    0.638110    0.069958
     59          8           0        2.486684   -0.400168   -1.793967
     60          6           0        0.232103   -2.763993   -1.716318
     61          1           0       -0.768357   -2.779480   -2.166123
     62          1           0        0.979446   -3.073258   -2.469111
     63          1           0        0.273647   -3.462118   -0.868787
     64          6           0        2.747333    0.234119    1.599405
     65          1           0        2.270949   -0.094791    2.537463
     66          1           0        3.685640   -0.304609    1.448800
     67          1           0        2.961032    1.310698    1.691897
 ---------------------------------------------------------------------

 Alpha  occ. eigenvalues --  -88.04390 -88.03143 -88.02996 -24.33299 -24.33132
 Alpha  occ. eigenvalues --  -24.33105 -24.32664 -24.32639 -24.32626 -24.32460
 Alpha  occ. eigenvalues --  -24.32453 -24.32445 -18.89681 -18.85866 -18.84605
 Alpha  occ. eigenvalues --  -18.82455 -18.82185 -18.81675 -18.81011 -18.81010
 Alpha  occ. eigenvalues --  -18.80993 -18.80945 -18.80539 -18.80073 -16.28738
 Alpha  occ. eigenvalues --  -14.29502 -14.23207 -14.16064 -14.15707 -10.92121
 Alpha  occ. eigenvalues --  -10.92078 -10.92068 -10.32118 -10.31279 -10.31158
 Alpha  occ. eigenvalues --  -10.23846 -10.19718 -10.19153 -10.19146 -10.18324
 Alpha  occ. eigenvalues --  -10.18270 -10.16963 -10.15169 -10.15059 -10.14827
 Alpha  occ. eigenvalues --  -10.12574 -10.09123 -10.07794 -10.07315 -10.07248
 Alpha  occ. eigenvalues --  -10.06940 -10.06848 -10.06727 -10.06559  -7.94122
 Alpha  occ. eigenvalues --   -7.92901  -7.92772  -6.13631  -6.13591  -6.13535
 Alpha  occ. eigenvalues --   -6.12394  -6.12375  -6.12322  -6.12267  -6.12250
 Alpha  occ. eigenvalues --   -6.12187  -5.00413  -5.00391  -5.00347  -5.00342
 Alpha  occ. eigenvalues --   -5.00319  -1.95951  -1.36823  -1.36160  -1.36070
 Alpha  occ. eigenvalues --   -1.26819  -1.26800  -1.26165  -1.26085  -1.26080
 Alpha  occ. eigenvalues --   -1.26069  -1.19485  -1.18387  -1.17284  -1.17067
 Alpha  occ. eigenvalues --   -1.15650  -1.12403  -1.10846  -1.05062  -1.04546
 Alpha  occ. eigenvalues --   -1.04013  -1.03750  -1.02881  -1.02552  -1.01480
 Alpha  occ. eigenvalues --   -1.00971  -1.00160  -1.00024  -0.98487  -0.97619
 Alpha  occ. eigenvalues --   -0.95073  -0.91898  -0.89725  -0.84591  -0.82436
 Alpha  occ. eigenvalues --   -0.81005  -0.79941  -0.79585  -0.78904  -0.78276
 Alpha  occ. eigenvalues --   -0.77993  -0.77957  -0.76810  -0.72667  -0.71011
 Alpha  occ. eigenvalues --   -0.70214  -0.70148  -0.68709  -0.67721  -0.66845
 Alpha  occ. eigenvalues --   -0.66754  -0.66587  -0.66269  -0.66145  -0.66116
 Alpha  occ. eigenvalues --   -0.66065  -0.65930  -0.65225  -0.63889  -0.62401
 Alpha  occ. eigenvalues --   -0.60903  -0.60041  -0.59173  -0.58943  -0.58698
 Alpha  occ. eigenvalues --   -0.58519  -0.57842  -0.57139  -0.55721  -0.55338
 Alpha  occ. eigenvalues --   -0.55010  -0.54670  -0.54468  -0.54327  -0.54211
 Alpha  occ. eigenvalues --   -0.54207  -0.53907  -0.53386  -0.53231  -0.52594
 Alpha  occ. eigenvalues --   -0.52334  -0.52243  -0.52074  -0.51888  -0.51699
 Alpha  occ. eigenvalues --   -0.51637  -0.51548  -0.51052  -0.50840  -0.50775
 Alpha  occ. eigenvalues --   -0.50622  -0.50492  -0.50363  -0.49890  -0.49849
 Alpha  occ. eigenvalues --   -0.49780  -0.49757  -0.49439  -0.49120  -0.48606
 Alpha  occ. eigenvalues --   -0.48449  -0.48340  -0.47771  -0.47723  -0.47382
 Alpha  occ. eigenvalues --   -0.46427  -0.46045  -0.45805  -0.44921  -0.44869
 Alpha  occ. eigenvalues --   -0.44287  -0.44005  -0.43820  -0.43159  -0.42659
 Alpha  occ. eigenvalues --   -0.42472  -0.42277  -0.41814  -0.41546  -0.41272
 Alpha  occ. eigenvalues --   -0.41002  -0.40936  -0.40577  -0.39808  -0.39760
 Alpha  occ. eigenvalues --   -0.39554  -0.39124  -0.38446  -0.38040  -0.37571
 Alpha  occ. eigenvalues --   -0.37018  -0.36786  -0.36688  -0.36661  -0.36184
 Alpha  occ. eigenvalues --   -0.35840  -0.35013  -0.34687  -0.33691  -0.32941
 Alpha  occ. eigenvalues --   -0.32545  -0.31812  -0.30890  -0.30582  -0.30326
 Alpha  occ. eigenvalues --   -0.27048  -0.27039  -0.26971  -0.26947  -0.26894
 Alpha  occ. eigenvalues --   -0.26857  -0.26776
 Alpha virt. eigenvalues --   -0.10468  -0.05440  -0.03030  -0.02242  -0.01650
 Alpha virt. eigenvalues --   -0.00538   0.00128   0.03017   0.03799   0.04177
 Alpha virt. eigenvalues --    0.06150   0.07559   0.08500   0.09047   0.09447

  Beta  occ. eigenvalues --  -88.04390 -88.03143 -88.02996 -24.33299 -24.33132
  Beta  occ. eigenvalues --  -24.33105 -24.32664 -24.32639 -24.32626 -24.32460
  Beta  occ. eigenvalues --  -24.32453 -24.32445 -18.89645 -18.85846 -18.84601
  Beta  occ. eigenvalues --  -18.82455 -18.82184 -18.81670 -18.81011 -18.81010
  Beta  occ. eigenvalues --  -18.80993 -18.80945 -18.80539 -18.80073 -16.28738
  Beta  occ. eigenvalues --  -14.28961 -14.23132 -14.16065 -14.15706 -10.92121
  Beta  occ. eigenvalues --  -10.92077 -10.92067 -10.32118 -10.31279 -10.31158
  Beta  occ. eigenvalues --  -10.23859 -10.19714 -10.19157 -10.19059 -10.18336
  Beta  occ. eigenvalues --  -10.18247 -10.16822 -10.15152 -10.15057 -10.14650
  Beta  occ. eigenvalues --  -10.12591 -10.09124 -10.07793 -10.07315 -10.07244
  Beta  occ. eigenvalues --  -10.06940 -10.06847 -10.06727 -10.06556  -7.94122
  Beta  occ. eigenvalues --   -7.92901  -7.92772  -6.13630  -6.13591  -6.13535
  Beta  occ. eigenvalues --   -6.12394  -6.12375  -6.12322  -6.12267  -6.12250
  Beta  occ. eigenvalues --   -6.12187  -5.00412  -5.00391  -5.00347  -5.00341
  Beta  occ. eigenvalues --   -5.00318  -1.95951  -1.36822  -1.36159  -1.36070
  Beta  occ. eigenvalues --   -1.26819  -1.26800  -1.26165  -1.26085  -1.26080
  Beta  occ. eigenvalues --   -1.26069  -1.18489  -1.18359  -1.17284  -1.17067
  Beta  occ. eigenvalues --   -1.15404  -1.12352  -1.10829  -1.05057  -1.04546
  Beta  occ. eigenvalues --   -1.04010  -1.03749  -1.02881  -1.02551  -1.01169
  Beta  occ. eigenvalues --   -1.00950  -1.00160  -1.00024  -0.98471  -0.96987
  Beta  occ. eigenvalues --   -0.94571  -0.91737  -0.89369  -0.84238  -0.82315
  Beta  occ. eigenvalues --   -0.80905  -0.79601  -0.79171  -0.78862  -0.78238
  Beta  occ. eigenvalues --   -0.77990  -0.77956  -0.76343  -0.72370  -0.71009
  Beta  occ. eigenvalues --   -0.70213  -0.70146  -0.68119  -0.67462  -0.66843
  Beta  occ. eigenvalues --   -0.66753  -0.66434  -0.66243  -0.66136  -0.66116
  Beta  occ. eigenvalues --   -0.66065  -0.65681  -0.64976  -0.63476  -0.62007
  Beta  occ. eigenvalues --   -0.60785  -0.59600  -0.59161  -0.58936  -0.58478
  Beta  occ. eigenvalues --   -0.58355  -0.57376  -0.56994  -0.55464  -0.55028
  Beta  occ. eigenvalues --   -0.54981  -0.54481  -0.54376  -0.54323  -0.54208
  Beta  occ. eigenvalues --   -0.54096  -0.53788  -0.53318  -0.53175  -0.52460
  Beta  occ. eigenvalues --   -0.52325  -0.52115  -0.51931  -0.51713  -0.51680
  Beta  occ. eigenvalues --   -0.51617  -0.51514  -0.50833  -0.50798  -0.50661
  Beta  occ. eigenvalues --   -0.50529  -0.50350  -0.50288  -0.49885  -0.49844
  Beta  occ. eigenvalues --   -0.49768  -0.49686  -0.49295  -0.49076  -0.48408
  Beta  occ. eigenvalues --   -0.48339  -0.48092  -0.47768  -0.47723  -0.47334
  Beta  occ. eigenvalues --   -0.46404  -0.45997  -0.45574  -0.44866  -0.44703
  Beta  occ. eigenvalues --   -0.44112  -0.43929  -0.43656  -0.43127  -0.42479
  Beta  occ. eigenvalues --   -0.42278  -0.42041  -0.41753  -0.41207  -0.41102
  Beta  occ. eigenvalues --   -0.40953  -0.40380  -0.39797  -0.39730  -0.39549
  Beta  occ. eigenvalues --   -0.39314  -0.39031  -0.38252  -0.37916  -0.37529
  Beta  occ. eigenvalues --   -0.36987  -0.36784  -0.36682  -0.36653  -0.35888
  Beta  occ. eigenvalues --   -0.35819  -0.34993  -0.34590  -0.33662  -0.32941
  Beta  occ. eigenvalues --   -0.32541  -0.31546  -0.30577  -0.30352  -0.27047
  Beta  occ. eigenvalues --   -0.27038  -0.26968  -0.26947  -0.26890  -0.26856
  Beta  occ. eigenvalues --   -0.26776
  Beta virt. eigenvalues --   -0.18187  -0.08471  -0.05155  -0.02838  -0.02237
  Beta virt. eigenvalues --   -0.01602  -0.00488   0.00163   0.03315   0.04259
  Beta virt. eigenvalues --    0.05200   0.06167   0.07776   0.08516   0.09081

 Mulliken charges and spin densities:
               1          2
     1  C    0.016369   0.057791
     2  C   -0.025152  -0.001618
     3  C    0.085161  -0.002918
     4  O   -0.196035   0.001825
     5  O   -0.150516   0.009347
     6  O   -0.467569   0.000103
     7  O   -0.460775   0.000089
     8  O   -0.476646   0.000019
     9  S    0.844541  -0.000007
    10  S    0.846705  -0.000049
    11  S    0.849253  -0.000105
    12  O   -0.477196   0.000042
    13  O   -0.458315   0.000011
    14  O   -0.480183   0.000037
    15  O   -0.447956   0.000062
    16  O   -0.487611   0.000441
    17  O   -0.458240   0.001543
    18  C    0.413869   0.000150
    19  C    0.401179   0.000025
    20  C    0.399086   0.000012
    21  F   -0.140214   0.000003
    22  F   -0.122536   0.000006
    23  F   -0.133605  -0.000000
    24  F   -0.139391   0.000001
    25  F   -0.139651   0.000001
    26  F   -0.137786   0.000001
    27  F   -0.122302   0.000013
    28  F   -0.139280   0.000001
    29  F   -0.140450   0.000001
    30  C    0.295233   0.017937
    31  C   -0.199903  -0.031502
    32  C   -0.144789   0.003103
    33  C   -0.101708   0.016534
    34  C    0.060335   0.311579
    35  C    0.087179   0.213717
    36  C    0.099931  -0.033821
    37  H    0.051336  -0.019673
    38  H    0.110773  -0.014890
    39  H    0.083248   0.000118
    40  N    0.162118   0.000456
    41  N    0.142786  -0.001184
    42  N   -0.136568   0.361378
    43  N    0.041469   0.066372
    44  C    0.151558  -0.052305
    45  H    0.132473   0.073034
    46  H    0.115490   0.001922
    47  C   -0.063244  -0.000461
    48  C    0.025833   0.000415
    49  C    0.032579   0.000428
    50  C    0.007026  -0.000063
    51  H    0.022790   0.000034
    52  C   -0.003486  -0.000148
    53  H   -0.003763  -0.000138
    54  C    0.029067   0.000198
    55  H    0.008404   0.000024
    56  H    0.017023   0.000006
    57  H    0.021528  -0.000015
    58  Yb   0.582967   0.000077
    59  O   -0.295041   0.014724
    60  C    0.124695   0.001777
    61  H    0.037766   0.001162
    62  H    0.069448   0.000172
    63  H    0.070455  -0.000127
    64  C    0.189315   0.003426
    65  H    0.075439  -0.000120
    66  H   -0.015971  -0.003130
    67  H    0.061454   0.002157
 Sum of Mulliken charges =  -0.00000   1.00000

 Dipole moment (field-independent basis, Debye):
    X=             25.5334    Y=            -12.8466    Z=              6.0588  Tot=             29.2181
 Quadrupole moment (field-independent basis, Debye-Ang):
   XX=           -294.5145   YY=           -331.7911   ZZ=           -349.8938
   XY=            -14.8239   XZ=             14.1997   YZ=            -19.9394

  Exact polarizability:   0.000   0.000   0.000   0.000   0.000   0.000
 Approx polarizability: 490.444 -23.150 453.687  39.996   6.197 446.151

 Normal termination of Gaussian 16 at Thu Mar 27 04:17:00 2025.
