 Gaussian 16, Revision A.03,
 Gaussian 16:  ES64L-G16RevA.03 25-Dec-2016

 ----------------------------------------------------------------------
 # irc=(maxpoints=100,recorrect=never,calcfc,maxcycles=500,nogradstop)
 UMN15/genecp scrf=(smd,solvent=DiChloroEthane)
 ----------------------------------------------------------------------

 -----------------------------------------------------------
 IRC for Going from i2 to i3, where we are forming bond 7-66
 -----------------------------------------------------------
 Symbolic Z-matrix:
 Charge =  0 Multiplicity = 2

 SCF Done:  E(UMN15) =  -5368.78022909     A.U. after   26 cycles
 SCF Done:  E(UMN15) =  -5368.78077504     A.U. after   17 cycles
 SCF Done:  E(UMN15) =  -5368.78225758     A.U. after   17 cycles
 SCF Done:  E(UMN15) =  -5368.78426036     A.U. after   16 cycles
 SCF Done:  E(UMN15) =  -5368.78640624     A.U. after   16 cycles
 SCF Done:  E(UMN15) =  -5368.78845859     A.U. after   16 cycles
 SCF Done:  E(UMN15) =  -5368.79029893     A.U. after   15 cycles
 SCF Done:  E(UMN15) =  -5368.79188366     A.U. after   15 cycles
 SCF Done:  E(UMN15) =  -5368.79321635     A.U. after   15 cycles
 SCF Done:  E(UMN15) =  -5368.79432722     A.U. after   15 cycles
 SCF Done:  E(UMN15) =  -5368.78078179     A.U. after   20 cycles
 SCF Done:  E(UMN15) =  -5368.78231066     A.U. after   17 cycles
 SCF Done:  E(UMN15) =  -5368.78444886     A.U. after   17 cycles
 SCF Done:  E(UMN15) =  -5368.78664544     A.U. after   17 cycles
 SCF Done:  E(UMN15) =  -5368.78832255     A.U. after   17 cycles
 SCF Done:  E(UMN15) =  -5368.78922655     A.U. after   16 cycles
 SCF Done:  E(UMN15) =  -5368.78963759     A.U. after   15 cycles
 SCF Done:  E(UMN15) =  -5368.78985067     A.U. after   15 cycles
 SCF Done:  E(UMN15) =  -5368.78984055     A.U. after   15 cycles
 SCF Done:  E(UMN15) =  -5368.78957062     A.U. after   14 cycles

                          Input orientation:
 ---------------------------------------------------------------------
 Center     Atomic      Atomic             Coordinates (Angstroms)
 Number     Number       Type             X           Y           Z
 ---------------------------------------------------------------------
      1          6           0        5.654062    0.635287    0.233047
      2          6           0        6.037103    0.439444   -1.099867
      3          6           0        7.258408    0.945128   -1.545367
      4          6           0        8.095947    1.636109   -0.665221
      5          6           0        7.710713    1.832462    0.663236
      6          6           0        6.487331    1.336507    1.113095
      7          6           0        2.155037   -0.500025   -0.066192
      8          6           0        1.292285    0.315995    0.908686
      9          6           0        1.413946   -0.703343   -1.393849
     10          1           0        5.374200   -0.095957   -1.783063
     11          1           0        7.557009    0.799975   -2.585588
     12          1           0        9.051785    2.029072   -1.018741
     13          1           0        8.359591    2.380581    1.349239
     14          1           0        6.173409    1.496500    2.148087
     15          8           0        0.203304   -0.749300   -1.454341
     16          8           0        0.167005   -0.036970    1.199761
     17          8           0        1.900342    1.357315    1.396451
     18          8           0        2.221516   -0.955938   -2.379267
     19          6           0        1.133015    2.173490    2.302165
     20          6           0        1.588997   -1.311990   -3.624879
     21          1           0        1.798352    2.983653    2.614170
     22          1           0        0.817326    1.567905    3.161812
     23          1           0        0.247234    2.555426    1.778645
     24          1           0        2.395631   -1.603067   -4.303687
     25          1           0        1.042977   -0.440114   -4.006674
     26          1           0        0.893079   -2.144061   -3.449291
     27          8           0       -1.796452   -2.296617    0.084149
     28          8           0       -2.093814    2.129297    1.402793
     29          8           0        0.036496    1.978711   -0.782632
     30         16           0       -0.303078    2.113433   -2.217972
     31         16           0       -1.983134   -2.772674   -1.310982
     32         16           0       -2.506411    1.268503    2.536293
     33          8           0       -1.593300    1.446183   -2.505735
     34          8           0        0.782005    1.870314   -3.155470
     35          8           0       -2.429029   -1.666310   -2.175318
     36          8           0       -0.925654   -3.639452   -1.816367
     37          8           0       -2.660867   -0.132308    2.079880
     38          8           0       -1.826627    1.480014    3.800713
     39          6           0       -4.241167    1.789957    2.834961
     40          6           0       -3.459010   -3.855053   -1.178425
     41          6           0       -0.695992    3.896439   -2.404151
     42          9           0       -4.784795    1.052420    3.791116
     43          9           0       -4.948895    1.636583    1.720538
     44          9           0       -4.282099    3.063385    3.195600
     45          9           0       -3.776991   -4.337978   -2.368767
     46          9           0       -4.481585   -3.155009   -0.707347
     47          9           0       -3.209381   -4.861346   -0.354578
     48          9           0        0.358809    4.626947   -2.078053
     49          9           0       -1.707692    4.219515   -1.611836
     50          9           0       -1.030620    4.155124   -3.658770
     51          6           0        4.363522    0.067509    0.747944
     52          1           0        3.987741    0.655229    1.599362
     53          6           0        4.550242   -1.401253    1.339554
     54          6           0        5.361846   -1.346476    2.562662
     55          6           0        5.189324   -2.278293    0.340252
     56          6           0        1.053247   -2.681112    0.850332
     57          6           0        1.553103   -2.244514    3.146636
     58          6           0        0.684408   -2.782446    2.162417
     59          1           0        0.422772   -3.034433    0.031403
     60          1           0        1.259155   -2.166215    4.195444
     61          1           0       -0.269366   -3.230142    2.451122
     62          7           0        6.041189   -1.261470    3.493767
     63          7           0        5.700316   -2.930781   -0.466321
     64          7           0        3.197771   -1.888046    1.641169
     65          7           0        2.793716   -1.847634    2.876229
     66          6           0        2.320363   -2.020750    0.509830
     67          1           0        2.844575   -2.526463   -0.312225
     68          8           0        3.423657   -0.016012   -0.295326
     69         70           0       -1.901035    0.179358   -0.320976
 ---------------------------------------------------------------------

 Alpha  occ. eigenvalues --  -88.03594 -88.03448 -88.03168 -24.32886 -24.32827
 Alpha  occ. eigenvalues --  -24.32800 -24.32739 -24.32679 -24.32619 -24.32604
 Alpha  occ. eigenvalues --  -24.32556 -24.32545 -18.90567 -18.90434 -18.90269
 Alpha  occ. eigenvalues --  -18.85616 -18.85495 -18.81552 -18.81360 -18.81307
 Alpha  occ. eigenvalues --  -18.81286 -18.81189 -18.81095 -18.81030 -18.80813
 Alpha  occ. eigenvalues --  -18.80579 -16.28697 -14.28802 -14.22661 -14.15779
 Alpha  occ. eigenvalues --  -14.15502 -10.92070 -10.92061 -10.92024 -10.31618
 Alpha  occ. eigenvalues --  -10.31460 -10.31214 -10.24018 -10.23964 -10.23512
 Alpha  occ. eigenvalues --  -10.20945 -10.18500 -10.18269 -10.16411 -10.14848
 Alpha  occ. eigenvalues --  -10.14734 -10.14247 -10.12036 -10.11161 -10.11126
 Alpha  occ. eigenvalues --  -10.08471 -10.07190 -10.07033 -10.06541 -10.06451
 Alpha  occ. eigenvalues --  -10.06418  -7.93367  -7.93211  -7.92941  -6.12865
 Alpha  occ. eigenvalues --   -6.12831  -6.12788  -6.12706  -6.12685  -6.12631
 Alpha  occ. eigenvalues --   -6.12432  -6.12415  -6.12365  -5.00375  -5.00346
 Alpha  occ. eigenvalues --   -5.00329  -5.00306  -5.00302  -1.95934  -1.36450
 Alpha  occ. eigenvalues --   -1.36261  -1.36156  -1.26457  -1.26437  -1.26255
 Alpha  occ. eigenvalues --   -1.26237  -1.26168  -1.26160  -1.20714  -1.18928
 Alpha  occ. eigenvalues --   -1.18609  -1.17694  -1.17451  -1.17239  -1.15660
 Alpha  occ. eigenvalues --   -1.10085  -1.08953  -1.04638  -1.04520  -1.03851
 Alpha  occ. eigenvalues --   -1.03346  -1.03016  -1.02680  -1.01228  -1.00865
 Alpha  occ. eigenvalues --   -1.00345  -0.99986  -0.98216  -0.97374  -0.94973
 Alpha  occ. eigenvalues --   -0.91825  -0.89226  -0.85584  -0.82100  -0.80816
 Alpha  occ. eigenvalues --   -0.79594  -0.79199  -0.78441  -0.78261  -0.78047
 Alpha  occ. eigenvalues --   -0.76973  -0.75961  -0.73700  -0.70604  -0.70419
 Alpha  occ. eigenvalues --   -0.70240  -0.68776  -0.68105  -0.66818  -0.66459
 Alpha  occ. eigenvalues --   -0.66443  -0.66259  -0.66253  -0.66211  -0.66154
 Alpha  occ. eigenvalues --   -0.65631  -0.65118  -0.63781  -0.63202  -0.62738
 Alpha  occ. eigenvalues --   -0.61892  -0.60063  -0.59926  -0.59513  -0.59024
 Alpha  occ. eigenvalues --   -0.58499  -0.57863  -0.57413  -0.57104  -0.56917
 Alpha  occ. eigenvalues --   -0.56480  -0.55949  -0.54662  -0.54610  -0.54535
 Alpha  occ. eigenvalues --   -0.54390  -0.54329  -0.54301  -0.54105  -0.52999
 Alpha  occ. eigenvalues --   -0.52770  -0.52515  -0.52097  -0.52040  -0.51925
 Alpha  occ. eigenvalues --   -0.51770  -0.51689  -0.51594  -0.51462  -0.51364
 Alpha  occ. eigenvalues --   -0.50609  -0.50234  -0.50110  -0.50030  -0.49989
 Alpha  occ. eigenvalues --   -0.49916  -0.49877  -0.49814  -0.49589  -0.48772
 Alpha  occ. eigenvalues --   -0.48203  -0.48041  -0.47832  -0.47826  -0.47659
 Alpha  occ. eigenvalues --   -0.46911  -0.46384  -0.46223  -0.45803  -0.45633
 Alpha  occ. eigenvalues --   -0.44617  -0.44058  -0.43733  -0.43522  -0.42974
 Alpha  occ. eigenvalues --   -0.42895  -0.42309  -0.42226  -0.42164  -0.42016
 Alpha  occ. eigenvalues --   -0.41510  -0.41044  -0.40900  -0.40256  -0.40094
 Alpha  occ. eigenvalues --   -0.39768  -0.39600  -0.39157  -0.39038  -0.38834
 Alpha  occ. eigenvalues --   -0.38507  -0.37795  -0.37354  -0.37209  -0.37023
 Alpha  occ. eigenvalues --   -0.36902  -0.36818  -0.36474  -0.35915  -0.35280
 Alpha  occ. eigenvalues --   -0.34589  -0.34394  -0.33236  -0.33026  -0.32760
 Alpha  occ. eigenvalues --   -0.30974  -0.30161  -0.29781  -0.27038  -0.27005
 Alpha  occ. eigenvalues --   -0.26992  -0.26934  -0.26894  -0.26868  -0.26696
 Alpha virt. eigenvalues --   -0.09743  -0.03466  -0.02773  -0.01569  -0.00615
 Alpha virt. eigenvalues --    0.00128   0.00359   0.02739   0.04020   0.05137
 Alpha virt. eigenvalues --    0.06015   0.07994   0.08715   0.08862   0.10074

  Beta  occ. eigenvalues --  -88.03594 -88.03448 -88.03168 -24.32886 -24.32827
  Beta  occ. eigenvalues --  -24.32800 -24.32739 -24.32679 -24.32619 -24.32604
  Beta  occ. eigenvalues --  -24.32556 -24.32545 -18.90487 -18.90423 -18.90265
  Beta  occ. eigenvalues --  -18.85599 -18.85465 -18.81547 -18.81360 -18.81306
  Beta  occ. eigenvalues --  -18.81285 -18.81189 -18.81095 -18.81030 -18.80813
  Beta  occ. eigenvalues --  -18.80579 -16.28697 -14.28292 -14.22561 -14.15781
  Beta  occ. eigenvalues --  -14.15500 -10.92069 -10.92060 -10.92023 -10.31617
  Beta  occ. eigenvalues --  -10.31460 -10.31214 -10.24025 -10.23970 -10.23512
  Beta  occ. eigenvalues --  -10.20802 -10.18534 -10.18241 -10.16294 -10.14836
  Beta  occ. eigenvalues --  -10.14731 -10.14072 -10.12052 -10.11161 -10.11125
  Beta  occ. eigenvalues --  -10.08470 -10.07186 -10.07030 -10.06538 -10.06453
  Beta  occ. eigenvalues --  -10.06419  -7.93367  -7.93211  -7.92941  -6.12865
  Beta  occ. eigenvalues --   -6.12831  -6.12788  -6.12706  -6.12685  -6.12631
  Beta  occ. eigenvalues --   -6.12432  -6.12415  -6.12365  -5.00372  -5.00345
  Beta  occ. eigenvalues --   -5.00330  -5.00305  -5.00302  -1.95933  -1.36450
  Beta  occ. eigenvalues --   -1.36261  -1.36156  -1.26457  -1.26437  -1.26255
  Beta  occ. eigenvalues --   -1.26237  -1.26168  -1.26160  -1.20488  -1.18837
  Beta  occ. eigenvalues --   -1.17945  -1.17690  -1.17427  -1.17235  -1.15294
  Beta  occ. eigenvalues --   -1.10045  -1.08916  -1.04636  -1.04520  -1.03851
  Beta  occ. eigenvalues --   -1.03341  -1.03014  -1.02679  -1.00925  -1.00844
  Beta  occ. eigenvalues --   -1.00344  -0.99985  -0.98196  -0.96782  -0.94554
  Beta  occ. eigenvalues --   -0.91568  -0.88913  -0.85193  -0.81951  -0.80758
  Beta  occ. eigenvalues --   -0.79192  -0.78781  -0.78427  -0.78260  -0.78046
  Beta  occ. eigenvalues --   -0.76740  -0.75693  -0.73361  -0.70599  -0.70417
  Beta  occ. eigenvalues --   -0.70240  -0.68413  -0.67764  -0.66564  -0.66459
  Beta  occ. eigenvalues --   -0.66442  -0.66258  -0.66252  -0.66211  -0.66154
  Beta  occ. eigenvalues --   -0.65445  -0.64514  -0.63623  -0.62915  -0.62700
  Beta  occ. eigenvalues --   -0.61792  -0.59938  -0.59611  -0.59487  -0.59020
  Beta  occ. eigenvalues --   -0.58140  -0.57651  -0.57279  -0.57049  -0.56538
  Beta  occ. eigenvalues --   -0.56417  -0.55718  -0.54655  -0.54559  -0.54511
  Beta  occ. eigenvalues --   -0.54362  -0.54315  -0.54300  -0.53833  -0.52761
  Beta  occ. eigenvalues --   -0.52509  -0.52170  -0.52065  -0.51974  -0.51816
  Beta  occ. eigenvalues --   -0.51708  -0.51592  -0.51564  -0.51289  -0.51144
  Beta  occ. eigenvalues --   -0.50405  -0.50222  -0.50074  -0.50021  -0.49942
  Beta  occ. eigenvalues --   -0.49875  -0.49871  -0.49789  -0.49492  -0.48556
  Beta  occ. eigenvalues --   -0.48041  -0.47915  -0.47832  -0.47826  -0.47477
  Beta  occ. eigenvalues --   -0.46898  -0.46283  -0.46134  -0.45771  -0.45538
  Beta  occ. eigenvalues --   -0.44508  -0.43680  -0.43634  -0.43383  -0.42939
  Beta  occ. eigenvalues --   -0.42647  -0.42243  -0.42167  -0.42009  -0.41565
  Beta  occ. eigenvalues --   -0.41390  -0.40980  -0.40387  -0.40092  -0.40053
  Beta  occ. eigenvalues --   -0.39676  -0.39481  -0.38954  -0.38851  -0.38401
  Beta  occ. eigenvalues --   -0.38175  -0.37362  -0.37189  -0.37091  -0.36996
  Beta  occ. eigenvalues --   -0.36830  -0.36770  -0.36312  -0.35664  -0.35230
  Beta  occ. eigenvalues --   -0.34543  -0.34355  -0.33204  -0.33016  -0.32756
  Beta  occ. eigenvalues --   -0.30274  -0.30142  -0.27034  -0.27004  -0.26986
  Beta  occ. eigenvalues --   -0.26932  -0.26894  -0.26863  -0.26695
  Beta virt. eigenvalues --   -0.18163  -0.07482  -0.03352  -0.02545  -0.01482
  Beta virt. eigenvalues --   -0.00439   0.00163   0.00414   0.03047   0.04933
  Beta virt. eigenvalues --    0.05397   0.06042   0.08168   0.08748   0.08896

 Mulliken charges and spin densities:
               1          2
     1  C   -0.020134  -0.000191
     2  C    0.025796   0.004611
     3  C    0.006566  -0.001974
     4  C    0.020180   0.006559
     5  C    0.005076  -0.003274
     6  C    0.018944   0.005976
     7  C   -0.012180   0.109494
     8  C    0.223087  -0.004366
     9  C    0.219869  -0.003972
    10  H    0.008927  -0.000337
    11  H    0.018568   0.000128
    12  H    0.020684  -0.000420
    13  H    0.017838   0.000209
    14  H    0.010014  -0.000311
    15  O   -0.189314   0.009563
    16  O   -0.195155   0.012830
    17  O   -0.237468   0.005004
    18  O   -0.231902   0.001958
    19  C    0.154937   0.000564
    20  C    0.167345   0.000234
    21  H    0.068739  -0.000018
    22  H    0.056188   0.000138
    23  H    0.073976   0.000146
    24  H    0.070369  -0.000021
    25  H    0.064098   0.000106
    26  H    0.053273   0.000197
    27  O   -0.478627   0.001793
    28  O   -0.469292   0.000016
    29  O   -0.480531   0.000399
    30  S    0.852879  -0.000026
    31  S    0.853109   0.000367
    32  S    0.843500   0.000012
    33  O   -0.474735   0.000091
    34  O   -0.456556   0.000027
    35  O   -0.459568   0.000295
    36  O   -0.454185   0.000175
    37  O   -0.474004   0.000021
    38  O   -0.454830   0.000002
    39  C    0.399744  -0.000001
    40  C    0.400710   0.000169
    41  C    0.405300   0.000007
    42  F   -0.139709   0.000000
    43  F   -0.140671   0.000000
    44  F   -0.139410   0.000000
    45  F   -0.136958   0.000029
    46  F   -0.136829   0.000001
    47  F   -0.140005   0.000009
    48  F   -0.138728   0.000001
    49  F   -0.134020   0.000001
    50  F   -0.138553   0.000003
    51  C    0.262904   0.022273
    52  H    0.073188  -0.000597
    53  C   -0.147181  -0.020797
    54  C   -0.141112   0.002687
    55  C   -0.141695   0.011485
    56  C    0.149786   0.303296
    57  C    0.092451   0.175548
    58  C    0.092368  -0.031810
    59  H    0.040317  -0.019029
    60  H    0.107235  -0.012328
    61  H    0.090021   0.000236
    62  N    0.162673   0.002586
    63  N    0.142519  -0.001634
    64  N   -0.114164   0.333322
    65  N    0.023633   0.085848
    66  C    0.106322  -0.063236
    67  H    0.117195   0.035313
    68  O   -0.240749   0.033161
    69  Yb   0.597934  -0.002550
 Sum of Mulliken charges =  -0.00000   1.00000

 Dipole moment (field-independent basis, Debye):
    X=             13.7044    Y=             -5.3557    Z=              5.5593  Tot=             15.7289
 Quadrupole moment (field-independent basis, Debye-Ang):
   XX=           -321.3007   YY=           -343.6236   ZZ=           -349.0548
   XY=              6.7067   XZ=              5.0478   YZ=            -10.2286

  Exact polarizability:   0.000   0.000   0.000   0.000   0.000   0.000
 Approx polarizability: 501.664  51.774 399.877 -17.555  18.642 514.446

 Normal termination of Gaussian 16 at Sat Mar  1 16:56:38 2025.
