 Gaussian 16, Revision A.03,
 Gaussian 16:  ES64L-G16RevA.03 25-Dec-2016

 ------------------------------------------------------------------
 #P MN15/gen scf=(maxcyc=500) opt scrf=(smd,solvent=DiChloroEthane)
 ------------------------------------------------------------------

 ---
 Opt
 ---
 Symbolic Z-matrix:
 Charge =  0 Multiplicity = 1

 SCF Done:  E(RMN15) =  -4781.68381053     A.U. after   15 cycles
 SCF Done:  E(RMN15) =  -4781.70631603     A.U. after   13 cycles
 SCF Done:  E(RMN15) =  -4781.67933330     A.U. after   15 cycles
 SCF Done:  E(RMN15) =  -4781.70500836     A.U. after   13 cycles
 SCF Done:  E(RMN15) =  -4781.70894031     A.U. after    9 cycles
 SCF Done:  E(RMN15) =  -4781.70962485     A.U. after   12 cycles
 SCF Done:  E(RMN15) =  -4781.71163121     A.U. after   12 cycles
 SCF Done:  E(RMN15) =  -4781.71331054     A.U. after   13 cycles
 SCF Done:  E(RMN15) =  -4781.71352113     A.U. after   12 cycles
 SCF Done:  E(RMN15) =  -4781.71469502     A.U. after   12 cycles
 SCF Done:  E(RMN15) =  -4781.71782888     A.U. after   11 cycles
 SCF Done:  E(RMN15) =  -4781.71782976     A.U. after    9 cycles
 SCF Done:  E(RMN15) =  -4781.71783133     A.U. after    8 cycles
 SCF Done:  E(RMN15) =  -4781.71782883     A.U. after    9 cycles
 SCF Done:  E(RMN15) =  -4781.71783127     A.U. after   10 cycles
 SCF Done:  E(RMN15) =  -4781.71783080     A.U. after    9 cycles
 SCF Done:  E(RMN15) =  -4781.71783311     A.U. after    9 cycles
 SCF Done:  E(RMN15) =  -4781.71783354     A.U. after    8 cycles
 SCF Done:  E(RMN15) =  -4781.71783358     A.U. after    8 cycles
 SCF Done:  E(RMN15) =  -4781.71783392     A.U. after    8 cycles
 Optimization completed.
    -- Stationary point found.

                         Standard orientation:
 ---------------------------------------------------------------------
 Center     Atomic      Atomic             Coordinates (Angstroms)
 Number     Number       Type             X           Y           Z
 ---------------------------------------------------------------------
      1          6           0       -1.974133   -0.910474    0.808093
      2          6           0       -1.472392   -0.462902   -0.576650
      3          6           0       -0.815167   -1.353806    1.728865
      4          8           0        0.302322   -0.856559    1.619114
      5          8           0       -0.488348    0.281736   -0.625056
      6          8           0        3.080756   -1.318468    0.680974
      7          8           0        2.168809   -0.233876   -1.836840
      8          8           0        0.607228    2.010211    1.192818
      9         16           0        1.562454    2.939204    0.519296
     10         16           0        3.724533   -0.558585    1.803147
     11         16           0        1.678254   -1.642238   -2.039687
     12          8           0        2.341248    2.054939   -0.415623
     13          8           0        2.288552    3.888198    1.318860
     14          8           0        2.840044    0.634930    1.961099
     15          8           0        4.119569   -1.286735    2.977011
     16          8           0        0.948261   -1.977393   -0.786443
     17          8           0        1.023087   -1.928292   -3.291975
     18          6           0        3.236896   -2.679892   -2.023002
     19          6           0        5.259668    0.094443    1.022914
     20          6           0        0.529007    3.915462   -0.647323
     21          9           0        3.133989   -3.607608   -1.095021
     22          9           0        4.287570   -1.920751   -1.790495
     23          9           0        3.362338   -3.251241   -3.205357
     24          9           0        4.936134    0.705487   -0.101630
     25          9           0        6.069226   -0.913811    0.765371
     26          9           0        5.844190    0.944145    1.842658
     27          9           0       -0.026712    3.094756   -1.517541
     28          9           0        1.294288    4.783228   -1.278504
     29          9           0       -0.407682    4.558151    0.028479
     30          6           0       -3.867521    0.833489    1.063631
     31          6           0       -4.848032   -0.362852    1.153486
     32          6           0       -6.216724    0.030492    0.749324
     33          6           0       -4.947971   -0.801474    2.578942
     34          6           0       -2.700784   -3.200248   -0.051916
     35          6           0       -5.059689   -3.535904   -0.348756
     36          6           0       -3.676727   -3.956555   -0.568697
     37          1           0       -1.638784   -3.438895   -0.176461
     38          1           0       -5.892238   -4.204095   -0.585311
     39          1           0       -3.472545   -4.860726   -1.143916
     40          7           0       -7.285399    0.398726    0.503086
     41          7           0       -4.943372   -1.195054    3.668158
     42          7           0       -4.359582   -1.469333    0.338586
     43          7           0       -5.370781   -2.367615    0.083886
     44          6           0       -3.068286   -2.000060    0.786722
     45          1           0       -3.188987   -2.341294    1.835924
     46          6           0       -2.495271    0.359436    1.555583
     47          1           0       -1.745715    1.158147    1.453033
     48          1           0       -2.567860    0.120438    2.628887
     49         21           0        1.502065    0.148159    0.185306
     50          1           0       -4.216043    1.574911    1.800262
     51          6           0       -3.840499    1.523268   -0.294567
     52          6           0       -3.103329    2.715864   -0.381045
     53          6           0       -4.527809    1.080366   -1.433765
     54          6           0       -3.063337    3.450616   -1.564730
     55          1           0       -2.562559    3.078184    0.498482
     56          6           0       -4.486309    1.816241   -2.621176
     57          1           0       -5.091979    0.146526   -1.425159
     58          6           0       -3.756760    3.002322   -2.692157
     59          1           0       -2.490728    4.379110   -1.605756
     60          1           0       -5.030280    1.451898   -3.495296
     61          1           0       -3.728612    3.577634   -3.620047
     62          6           0       -1.059750   -2.313919    2.842128
     63          1           0       -0.160633   -2.361609    3.466065
     64          1           0       -1.931158   -2.013385    3.445066
     65          1           0       -1.274541   -3.313384    2.429047
     66          6           0       -2.063252   -0.912612   -1.863530
     67          1           0       -3.098091   -1.256114   -1.802499
     68          1           0       -1.942061   -0.104811   -2.598495
     69          1           0       -1.423742   -1.753552   -2.192766
 ---------------------------------------------------------------------

 The electronic state is 1-A.
 Alpha  occ. eigenvalues -- -160.22400 -88.06811 -88.06677 -88.06256 -24.34684
 Alpha  occ. eigenvalues --  -24.34588 -24.34526 -24.34410 -24.34399 -24.34389
 Alpha  occ. eigenvalues --  -24.33917 -24.33885 -24.33849 -18.88425 -18.87312
 Alpha  occ. eigenvalues --  -18.85508 -18.85327 -18.85293 -18.85064 -18.85058
 Alpha  occ. eigenvalues --  -18.84547 -18.84378 -18.84129 -18.83781 -17.20963
 Alpha  occ. eigenvalues --  -14.51121 -14.51068 -14.51033 -14.18628 -14.15505
 Alpha  occ. eigenvalues --  -14.13849 -14.13023 -10.34037 -10.33996 -10.33732
 Alpha  occ. eigenvalues --  -10.21672 -10.21148 -10.19788 -10.13641 -10.13268
 Alpha  occ. eigenvalues --  -10.12810 -10.12593 -10.11110 -10.10682 -10.10268
 Alpha  occ. eigenvalues --  -10.08978 -10.08078 -10.07711 -10.07649 -10.06973
 Alpha  occ. eigenvalues --  -10.06538 -10.06413 -10.06075 -10.06044 -10.06009
 Alpha  occ. eigenvalues --   -7.96647  -7.96497  -7.96089  -6.16172  -6.16117
 Alpha  occ. eigenvalues --   -6.16023  -6.15977  -6.15968  -6.15834  -6.15617
 Alpha  occ. eigenvalues --   -6.15555  -6.15428  -2.17202  -1.41823  -1.41717
 Alpha  occ. eigenvalues --   -1.41460  -1.38342  -1.38274  -1.37798  -1.28377
 Alpha  occ. eigenvalues --   -1.28270  -1.28262  -1.28227  -1.27758  -1.27643
 Alpha  occ. eigenvalues --   -1.21268  -1.20741  -1.20360  -1.14905  -1.12917
 Alpha  occ. eigenvalues --   -1.09485  -1.08351  -1.07915  -1.07321  -1.06031
 Alpha  occ. eigenvalues --   -1.05829  -1.05486  -0.98233  -0.96159  -0.94849
 Alpha  occ. eigenvalues --   -0.91276  -0.90549  -0.86696  -0.84443  -0.81909
 Alpha  occ. eigenvalues --   -0.80960  -0.80764  -0.80601  -0.79786  -0.79653
 Alpha  occ. eigenvalues --   -0.78554  -0.75668  -0.73365  -0.72656  -0.72614
 Alpha  occ. eigenvalues --   -0.72042  -0.70564  -0.68969  -0.68293  -0.68175
 Alpha  occ. eigenvalues --   -0.68154  -0.68117  -0.67706  -0.67669  -0.65842
 Alpha  occ. eigenvalues --   -0.65336  -0.64296  -0.63598  -0.63091  -0.62790
 Alpha  occ. eigenvalues --   -0.62329  -0.62053  -0.61176  -0.60241  -0.58482
 Alpha  occ. eigenvalues --   -0.58126  -0.57848  -0.57465  -0.57378  -0.56467
 Alpha  occ. eigenvalues --   -0.56333  -0.56235  -0.55511  -0.55449  -0.55263
 Alpha  occ. eigenvalues --   -0.55236  -0.55003  -0.54703  -0.54502  -0.54500
 Alpha  occ. eigenvalues --   -0.54191  -0.54119  -0.53704  -0.53432  -0.52908
 Alpha  occ. eigenvalues --   -0.52656  -0.52385  -0.52256  -0.52153  -0.52099
 Alpha  occ. eigenvalues --   -0.51868  -0.51601  -0.51459  -0.51324  -0.50638
 Alpha  occ. eigenvalues --   -0.50468  -0.49629  -0.49467  -0.48958  -0.48396
 Alpha  occ. eigenvalues --   -0.48139  -0.47958  -0.47729  -0.47222  -0.46468
 Alpha  occ. eigenvalues --   -0.46294  -0.46061  -0.45879  -0.45723  -0.44890
 Alpha  occ. eigenvalues --   -0.44653  -0.44553  -0.43877  -0.43814  -0.43571
 Alpha  occ. eigenvalues --   -0.43304  -0.43120  -0.42733  -0.42531  -0.42158
 Alpha  occ. eigenvalues --   -0.41868  -0.41559  -0.41383  -0.41010  -0.40644
 Alpha  occ. eigenvalues --   -0.40598  -0.40128  -0.39955  -0.39903  -0.39379
 Alpha  occ. eigenvalues --   -0.39262  -0.38721  -0.38418  -0.38204  -0.38047
 Alpha  occ. eigenvalues --   -0.37860  -0.37636  -0.37087  -0.37073  -0.36571
 Alpha  occ. eigenvalues --   -0.35899  -0.34570  -0.33549  -0.29603  -0.29361
 Alpha  occ. eigenvalues --   -0.27490
 Alpha virt. eigenvalues --   -0.07073  -0.06107  -0.04298  -0.02561  -0.00870
 Alpha virt. eigenvalues --   -0.00218   0.00338   0.00644   0.00977   0.01372
 Alpha virt. eigenvalues --    0.01851   0.03532   0.05655   0.06193   0.06825

 Mulliken charges:
               1
     1  C   -0.311884
     2  C    0.045313
     3  C    0.106343
     4  O   -0.195753
     5  O   -0.216412
     6  O   -0.440240
     7  O   -0.442450
     8  O   -0.430490
     9  S    0.893730
    10  S    0.867945
    11  S    0.859399
    12  O   -0.443639
    13  O   -0.382710
    14  O   -0.427076
    15  O   -0.384848
    16  O   -0.435703
    17  O   -0.399511
    18  C    0.445885
    19  C    0.448804
    20  C    0.433692
    21  F   -0.115974
    22  F   -0.111170
    23  F   -0.122663
    24  F   -0.102302
    25  F   -0.119701
    26  F   -0.118519
    27  F   -0.104234
    28  F   -0.117679
    29  F   -0.121115
    30  C    0.134261
    31  C   -0.230478
    32  C   -0.165594
    33  C   -0.150818
    34  C    0.020384
    35  C   -0.002460
    36  C    0.014597
    37  H    0.041617
    38  H    0.054679
    39  H    0.039935
    40  N    0.144129
    41  N    0.110909
    42  N   -0.218868
    43  N   -0.019675
    44  C    0.141952
    45  H    0.046391
    46  C    0.176416
    47  H    0.064122
    48  H    0.055154
    49  Sc   0.316920
    50  H    0.079762
    51  C   -0.030667
    52  C   -0.024708
    53  C    0.022296
    54  C    0.012133
    55  H   -0.000109
    56  C   -0.000322
    57  H    0.003794
    58  C    0.014245
    59  H    0.003230
    60  H    0.009610
    61  H    0.013718
    62  C    0.123197
    63  H    0.076125
    64  H    0.082561
    65  H    0.089985
    66  C    0.215829
    67  H    0.040557
    68  H    0.072528
    69  H    0.065623
 Sum of Mulliken charges =  -0.00000

 Dipole moment (field-independent basis, Debye):
    X=             -8.3299    Y=             -6.4103    Z=             -1.5043  Tot=             10.6180
 Quadrupole moment (field-independent basis, Debye-Ang):
   XX=           -374.1430   YY=           -298.8223   ZZ=           -329.9744
   XY=              9.6202   XZ=              5.4730   YZ=             -7.3421

 Normal termination of Gaussian 16 at Mon Mar  3 21:38:23 2025.
