 Gaussian 16, Revision A.03,
 Gaussian 16:  ES64L-G16RevA.03 25-Dec-2016

 ------------------------------------------------------------------
 #P MN15/gen scf=(maxcyc=500) opt scrf=(smd,solvent=DiChloroEthane)
 ------------------------------------------------------------------

 ---
 Opt
 ---
 Symbolic Z-matrix:
 Charge =  0 Multiplicity = 1

 SCF Done:  E(RMN15) =  -4931.93299805     A.U. after   14 cycles
 SCF Done:  E(RMN15) =  -4931.93707292     A.U. after   13 cycles
 SCF Done:  E(RMN15) =  -4931.93800477     A.U. after   12 cycles
 SCF Done:  E(RMN15) =  -4931.93854780     A.U. after   12 cycles
 SCF Done:  E(RMN15) =  -4931.93884429     A.U. after   11 cycles
 SCF Done:  E(RMN15) =  -4931.93904256     A.U. after   10 cycles
 SCF Done:  E(RMN15) =  -4931.93916189     A.U. after   10 cycles
 SCF Done:  E(RMN15) =  -4931.93921239     A.U. after   10 cycles
 SCF Done:  E(RMN15) =  -4931.93922028     A.U. after    9 cycles
 SCF Done:  E(RMN15) =  -4931.93926198     A.U. after    9 cycles
 SCF Done:  E(RMN15) =  -4931.93958932     A.U. after    9 cycles
 SCF Done:  E(RMN15) =  -4931.93960672     A.U. after    9 cycles
 SCF Done:  E(RMN15) =  -4931.93959956     A.U. after    9 cycles
 SCF Done:  E(RMN15) =  -4931.93961003     A.U. after    9 cycles
 SCF Done:  E(RMN15) =  -4931.93960912     A.U. after    9 cycles
 SCF Done:  E(RMN15) =  -4931.93961006     A.U. after    8 cycles
 SCF Done:  E(RMN15) =  -4931.93961255     A.U. after    8 cycles
 SCF Done:  E(RMN15) =  -4931.93961237     A.U. after    7 cycles
 SCF Done:  E(RMN15) =  -4931.93961289     A.U. after    7 cycles
 SCF Done:  E(RMN15) =  -4931.93961318     A.U. after    6 cycles
 Optimization completed.
    -- Stationary point found.

                         Standard orientation:
 ---------------------------------------------------------------------
 Center     Atomic      Atomic             Coordinates (Angstroms)
 Number     Number       Type             X           Y           Z
 ---------------------------------------------------------------------
      1          6           0        5.524765   -0.768515    0.094916
      2          6           0        5.802258   -1.602469    1.188177
      3          6           0        6.953705   -2.393096    1.199844
      4          6           0        7.840288   -2.362479    0.121658
      5          6           0        7.571837   -1.535841   -0.972169
      6          6           0        6.422138   -0.745996   -0.983239
      7          6           0        1.765315    0.321068    0.644949
      8          6           0        1.146164    0.506506   -0.729895
      9          6           0        0.740038   -0.252586    1.603964
     10          1           0        5.123584   -1.642921    2.043506
     11          1           0        7.156018   -3.037953    2.057850
     12          1           0        8.738544   -2.983927    0.132408
     13          1           0        8.257832   -1.507605   -1.821633
     14          1           0        6.209464   -0.099815   -1.839837
     15          8           0       -0.447077    0.106034    1.601204
     16          8           0       -0.031228    0.307559   -1.035724
     17          8           0        1.992394    0.958070   -1.601603
     18          8           0        1.192011   -1.079546    2.484708
     19          6           0        1.493182    1.339522   -2.896061
     20          6           0        0.244819   -1.666204    3.399269
     21          1           0        2.331883    1.812546   -3.415134
     22          1           0        0.658272    2.043167   -2.770399
     23          1           0        1.150944    0.447842   -3.436144
     24          1           0        0.809616   -2.390505    3.992758
     25          1           0       -0.549707   -2.159719    2.823283
     26          1           0       -0.182041   -0.883714    4.039401
     27          8           0       -3.491360    0.345777    1.358891
     28          8           0       -2.939073    0.730580   -1.541620
     29          8           0       -0.289013   -2.142215    0.090743
     30         16           0       -0.954347   -2.756426   -1.090597
     31         16           0       -3.845961   -1.029081    1.842353
     32         16           0       -2.725675    2.153377   -1.100688
     33          8           0       -2.049613   -1.799474   -1.466803
     34          8           0       -1.286332   -4.155350   -1.041856
     35          8           0       -2.756029   -1.883485    1.273860
     36          8           0       -4.206497   -1.197826    3.221931
     37          8           0       -1.851869    2.033279    0.098972
     38          8           0       -2.357476    3.110324   -2.112726
     39          6           0       -4.397937    2.687992   -0.455519
     40          6           0       -5.308610   -1.456427    0.808360
     41          6           0        0.272496   -2.566833   -2.492980
     42          9           0       -4.265802    3.142433    0.772890
     43          9           0       -5.233901    1.669096   -0.470505
     44          9           0       -4.858735    3.645482   -1.235940
     45          9           0       -4.966175   -1.304504   -0.459844
     46          9           0       -6.304694   -0.646897    1.103291
     47          9           0       -5.659060   -2.705838    1.030999
     48          9           0        1.412842   -2.078665   -2.023950
     49          9           0       -0.207457   -1.740255   -3.400588
     50          9           0        0.493494   -3.744812   -3.033594
     51          6           0        4.304718    0.128235    0.042538
     52          1           0        4.139399    0.414412   -1.005631
     53          6           0        4.525658    1.498940    0.763910
     54          6           0        5.687962    2.197716    0.176939
     55          6           0        4.808612    1.283034    2.205372
     56          6           0        0.996535    2.756362    1.025449
     57          6           0        2.304007    3.855786   -0.690724
     58          6           0        1.074039    3.701360    0.073050
     59          1           0        0.098846    2.624424    1.630431
     60          1           0        2.376813    4.573669   -1.511127
     61          1           0        0.234859    4.371681   -0.121472
     62          7           0        6.647023    2.670534   -0.264344
     63          7           0        4.993562    1.077218    3.329101
     64          7           0        3.329617    2.321713    0.630564
     65          7           0        3.365729    3.183896   -0.411810
     66          6           0        2.119908    1.781159    1.218027
     67          1           0        2.312139    1.605385    2.292760
     68         21           0       -1.814805   -0.257764    0.034434
     69          6           0        3.052634   -0.533314    0.625186
     70          1           0        2.860776   -1.479773    0.098794
     71          1           0        3.255375   -0.791272    1.674642
 ---------------------------------------------------------------------

 The electronic state is 1-A.
 Alpha  occ. eigenvalues -- -160.22292 -88.07124 -88.06586 -88.06254 -24.34980
 Alpha  occ. eigenvalues --  -24.34835 -24.34642 -24.34633 -24.34621 -24.34457
 Alpha  occ. eigenvalues --  -24.34020 -24.33965 -24.33936 -18.91687 -18.91468
 Alpha  occ. eigenvalues --  -18.87832 -18.87180 -18.85793 -18.85748 -18.85085
 Alpha  occ. eigenvalues --  -18.85062 -18.84791 -18.84787 -18.84485 -18.83907
 Alpha  occ. eigenvalues --  -18.83841 -17.20847 -14.50990 -14.50956 -14.50927
 Alpha  occ. eigenvalues --  -14.19018 -14.15817 -14.13781 -14.13011 -10.34316
 Alpha  occ. eigenvalues --  -10.34118 -10.33777 -10.25486 -10.25484 -10.19681
 Alpha  occ. eigenvalues --  -10.15038 -10.13578 -10.12863 -10.12526 -10.12417
 Alpha  occ. eigenvalues --  -10.12211 -10.10195 -10.09902 -10.09222 -10.08512
 Alpha  occ. eigenvalues --  -10.07737 -10.07473 -10.06301 -10.06174 -10.05919
 Alpha  occ. eigenvalues --  -10.05888 -10.05861  -7.96964  -7.96340  -7.96092
 Alpha  occ. eigenvalues --   -6.16484  -6.16438  -6.16293  -6.15866  -6.15808
 Alpha  occ. eigenvalues --   -6.15702  -6.15617  -6.15559  -6.15430  -2.17101
 Alpha  occ. eigenvalues --   -1.41752  -1.41601  -1.41394  -1.38521  -1.38477
 Alpha  occ. eigenvalues --   -1.37872  -1.28519  -1.28503  -1.28431  -1.28379
 Alpha  occ. eigenvalues --   -1.27818  -1.27752  -1.21561  -1.21004  -1.20530
 Alpha  occ. eigenvalues --   -1.20374  -1.20291  -1.11062  -1.10033  -1.09617
 Alpha  occ. eigenvalues --   -1.08694  -1.07605  -1.07437  -1.06336  -1.05693
 Alpha  occ. eigenvalues --   -1.05446  -0.98273  -0.96074  -0.94572  -0.91421
 Alpha  occ. eigenvalues --   -0.90517  -0.86828  -0.84737  -0.81793  -0.80985
 Alpha  occ. eigenvalues --   -0.80717  -0.80236  -0.79863  -0.78594  -0.78257
 Alpha  occ. eigenvalues --   -0.75880  -0.73405  -0.72883  -0.72609  -0.72105
 Alpha  occ. eigenvalues --   -0.71295  -0.68712  -0.68494  -0.68417  -0.68378
 Alpha  occ. eigenvalues --   -0.68286  -0.67769  -0.67745  -0.65885  -0.65161
 Alpha  occ. eigenvalues --   -0.64644  -0.64215  -0.63862  -0.63554  -0.63164
 Alpha  occ. eigenvalues --   -0.62656  -0.61962  -0.61348  -0.60891  -0.60005
 Alpha  occ. eigenvalues --   -0.59612  -0.58808  -0.58496  -0.57859  -0.57340
 Alpha  occ. eigenvalues --   -0.56833  -0.56643  -0.56032  -0.55900  -0.55700
 Alpha  occ. eigenvalues --   -0.55488  -0.55379  -0.55338  -0.55241  -0.55071
 Alpha  occ. eigenvalues --   -0.54555  -0.54509  -0.54330  -0.53778  -0.53707
 Alpha  occ. eigenvalues --   -0.53497  -0.53006  -0.52532  -0.52459  -0.52277
 Alpha  occ. eigenvalues --   -0.52202  -0.51792  -0.51646  -0.51440  -0.51339
 Alpha  occ. eigenvalues --   -0.51022  -0.49824  -0.49700  -0.49068  -0.49029
 Alpha  occ. eigenvalues --   -0.48798  -0.48527  -0.48491  -0.47740  -0.47563
 Alpha  occ. eigenvalues --   -0.47315  -0.46521  -0.46028  -0.45914  -0.45402
 Alpha  occ. eigenvalues --   -0.45136  -0.44834  -0.44259  -0.44108  -0.43913
 Alpha  occ. eigenvalues --   -0.43552  -0.43137  -0.42832  -0.42554  -0.42511
 Alpha  occ. eigenvalues --   -0.41791  -0.41744  -0.41692  -0.41498  -0.41195
 Alpha  occ. eigenvalues --   -0.41007  -0.40819  -0.40523  -0.40172  -0.40041
 Alpha  occ. eigenvalues --   -0.39958  -0.39641  -0.39372  -0.39259  -0.39034
 Alpha  occ. eigenvalues --   -0.38806  -0.38378  -0.38222  -0.38083  -0.37605
 Alpha  occ. eigenvalues --   -0.37478  -0.37302  -0.36793  -0.36584  -0.35445
 Alpha  occ. eigenvalues --   -0.33811  -0.29545  -0.29478  -0.26486
 Alpha virt. eigenvalues --   -0.04141  -0.04047  -0.03438  -0.02486  -0.00832
 Alpha virt. eigenvalues --   -0.00729   0.00651   0.00720   0.00985   0.01433
 Alpha virt. eigenvalues --    0.01898   0.03650   0.05485   0.06872   0.07049

 Mulliken charges:
               1
     1  C    0.016185
     2  C   -0.013045
     3  C   -0.001364
     4  C    0.012955
     5  C    0.002460
     6  C   -0.006997
     7  C   -0.282051
     8  C    0.276676
     9  C    0.327428
    10  H   -0.000489
    11  H    0.010701
    12  H    0.013875
    13  H    0.011715
    14  H    0.001320
    15  O   -0.259903
    16  O   -0.218305
    17  O   -0.225784
    18  O   -0.209329
    19  C    0.166172
    20  C    0.152084
    21  H    0.078044
    22  H    0.064844
    23  H    0.070420
    24  H    0.080018
    25  H    0.084254
    26  H    0.082774
    27  O   -0.429757
    28  O   -0.434706
    29  O   -0.445959
    30  S    0.893869
    31  S    0.864841
    32  S    0.869638
    33  O   -0.440207
    34  O   -0.391020
    35  O   -0.424590
    36  O   -0.378068
    37  O   -0.426415
    38  O   -0.395586
    39  C    0.447823
    40  C    0.453335
    41  C    0.429249
    42  F   -0.114904
    43  F   -0.112031
    44  F   -0.121045
    45  F   -0.102149
    46  F   -0.115170
    47  F   -0.115741
    48  F   -0.124432
    49  F   -0.108915
    50  F   -0.112901
    51  C    0.068360
    52  H    0.033494
    53  C   -0.133439
    54  C   -0.165478
    55  C   -0.182850
    56  C    0.043813
    57  C   -0.013878
    58  C    0.000811
    59  H    0.055908
    60  H    0.047626
    61  H    0.034835
    62  N    0.136738
    63  N    0.108197
    64  N   -0.180350
    65  N   -0.004477
    66  C    0.121394
    67  H    0.072567
    68  Sc   0.249379
    69  C    0.200057
    70  H    0.055199
    71  H    0.052277
 Sum of Mulliken charges =  -0.00000

 Dipole moment (field-independent basis, Debye):
    X=              6.1582    Y=              0.3088    Z=             -0.1191  Tot=              6.1671
 Quadrupole moment (field-independent basis, Debye-Ang):
   XX=           -369.0945   YY=           -342.2487   ZZ=           -320.9010
   XY=            -32.9461   XZ=            -11.9395   YZ=             -9.5739

 Normal termination of Gaussian 16 at Fri Feb  7 00:48:28 2025.
