 Gaussian 16, Revision A.03,
 Gaussian 16:  ES64L-G16RevA.03 25-Dec-2016

 ------------------------------------------------------------------
 #P MN15/gen scf=(maxcyc=500) opt scrf=(smd,solvent=DiChloroEthane)
 ------------------------------------------------------------------

 ---
 Opt
 ---
 Symbolic Z-matrix:
 Charge =  0 Multiplicity = 1

 SCF Done:  E(RMN15) =  -4781.69021711     A.U. after   14 cycles
 SCF Done:  E(RMN15) =  -4781.71311662     A.U. after   15 cycles
 SCF Done:  E(RMN15) =  -4781.72566652     A.U. after   14 cycles
 SCF Done:  E(RMN15) =  -4781.69423313     A.U. after   15 cycles
 SCF Done:  E(RMN15) =  -4781.71920563     A.U. after   13 cycles
 SCF Done:  E(RMN15) =  -4781.73044122     A.U. after   10 cycles
 SCF Done:  E(RMN15) =  -4781.73297821     A.U. after   12 cycles
 SCF Done:  E(RMN15) =  -4781.72996255     A.U. after   14 cycles
 SCF Done:  E(RMN15) =  -4781.73401443     A.U. after   12 cycles
 SCF Done:  E(RMN15) =  -4781.73465272     A.U. after   12 cycles
 SCF Done:  E(RMN15) =  -4781.73672962     A.U. after    9 cycles
 SCF Done:  E(RMN15) =  -4781.73673714     A.U. after    9 cycles
 SCF Done:  E(RMN15) =  -4781.73673949     A.U. after    9 cycles
 SCF Done:  E(RMN15) =  -4781.73674326     A.U. after    8 cycles
 SCF Done:  E(RMN15) =  -4781.73674670     A.U. after    8 cycles
 SCF Done:  E(RMN15) =  -4781.73674842     A.U. after    8 cycles
 SCF Done:  E(RMN15) =  -4781.73675174     A.U. after    9 cycles
 SCF Done:  E(RMN15) =  -4781.73675151     A.U. after    8 cycles
 SCF Done:  E(RMN15) =  -4781.73675221     A.U. after    8 cycles
 SCF Done:  E(RMN15) =  -4781.73675256     A.U. after    7 cycles
 Optimization completed.
    -- Stationary point found.

                         Standard orientation:
 ---------------------------------------------------------------------
 Center     Atomic      Atomic             Coordinates (Angstroms)
 Number     Number       Type             X           Y           Z
 ---------------------------------------------------------------------
      1          6           0       -5.687408    0.439492   -0.127734
      2          6           0       -6.377278    0.374392   -1.346608
      3          6           0       -7.647673    0.937637   -1.474939
      4          6           0       -8.242119    1.573721   -0.382716
      5          6           0       -7.560572    1.646507    0.834635
      6          6           0       -6.288888    1.085113    0.962798
      7          6           0       -1.823730    0.492426    0.502457
      8          6           0       -1.267267    0.824250   -0.767725
      9          6           0       -0.983974    0.020956    1.541208
     10          1           0       -5.907283   -0.122630   -2.200623
     11          1           0       -8.171934    0.882405   -2.431387
     12          1           0       -9.235563    2.016976   -0.481215
     13          1           0       -8.018712    2.147101    1.690369
     14          1           0       -5.766335    1.155263    1.919959
     15          8           0        0.261991   -0.217750    1.391401
     16          8           0       -0.023904    0.796253   -1.030421
     17          8           0        3.074845   -1.148587    0.937488
     18          8           0        2.748564   -0.112460   -1.784567
     19          8           0        0.799579    2.456876    1.019860
     20         16           0        1.626592    3.302890    0.125406
     21         16           0        3.759155   -0.256917    1.921198
     22         16           0        2.152068   -1.462976   -2.022544
     23          8           0        2.454999    2.357005   -0.687884
     24          8           0        2.297890    4.447855    0.690865
     25          8           0        3.054001    1.051255    1.802468
     26          8           0        4.020956   -0.778282    3.238182
     27          8           0        1.184715   -1.675656   -0.916244
     28          8           0        1.708567   -1.763705   -3.363554
     29          6           0        3.544779   -2.663751   -1.685439
     30          6           0        5.397840    0.060712    1.149943
     31          6           0        0.413729    4.003376   -1.113343
     32          9           0        3.163140   -3.536260   -0.769508
     33          9           0        4.621776   -2.026084   -1.272586
     34          9           0        3.827019   -3.309034   -2.803798
     35          9           0        5.217078    0.559535   -0.059873
     36          9           0        6.073096   -1.071166    1.068874
     37          9           0        6.070374    0.924721    1.888233
     38          9           0       -0.822740    3.805857   -0.680361
     39          9           0        0.559161    3.422430   -2.289164
     40          9           0        0.623142    5.300715   -1.241354
     41          6           0       -4.301020   -0.170220   -0.029241
     42          1           0       -3.943559   -0.339306   -1.054266
     43          6           0       -4.406474   -1.629185    0.552647
     44          6           0       -5.333588   -2.430195   -0.273944
     45          6           0       -4.901721   -1.590982    1.937967
     46          6           0       -1.223894   -3.485426    1.363411
     47          6           0       -1.415088   -2.876572   -0.943887
     48          6           0       -0.674617   -3.480447    0.098737
     49          1           0       -0.724679   -3.935885    2.221330
     50          1           0       -1.035707   -2.841807   -1.966573
     51          1           0        0.300580   -3.918479   -0.111838
     52          7           0       -6.048252   -3.048782   -0.940049
     53          7           0       -5.283010   -1.504339    3.026687
     54          7           0       -3.074177   -2.321621    0.483814
     55          7           0       -2.588176   -2.320570   -0.744804
     56         21           0        1.662534    0.434698    0.086824
     57          6           0       -3.305160    0.731441    0.731988
     58          1           0       -3.558349    1.758431    0.424829
     59          1           0       -3.540183    0.705366    1.804973
     60          6           0       -2.472711   -2.881730    1.535509
     61          1           0       -2.985185   -2.849400    2.498098
     62          6           0       -2.130993    1.237048   -1.927497
     63          1           0       -2.396785    0.332322   -2.501470
     64          1           0       -3.058896    1.747229   -1.640020
     65          1           0       -1.539202    1.880695   -2.589919
     66          6           0       -1.470992   -0.207041    2.947053
     67          1           0       -2.536110   -0.438089    3.056308
     68          1           0       -0.863291   -0.998521    3.405821
     69          1           0       -1.274856    0.720919    3.511233
 ---------------------------------------------------------------------

 The electronic state is 1-A.
 Alpha  occ. eigenvalues -- -160.18596 -88.05436 -88.04889 -88.04586 -24.33612
 Alpha  occ. eigenvalues --  -24.33566 -24.33517 -24.33306 -24.33306 -24.33200
 Alpha  occ. eigenvalues --  -24.33141 -24.33136 -24.33057 -18.83846 -18.83764
 Alpha  occ. eigenvalues --  -18.83342 -18.82988 -18.82982 -18.82891 -18.82485
 Alpha  occ. eigenvalues --  -18.82345 -18.82170 -18.81985 -18.81802 -17.17123
 Alpha  occ. eigenvalues --  -14.47317 -14.47259 -14.47141 -14.29325 -14.21074
 Alpha  occ. eigenvalues --  -14.15894 -14.14896 -10.32890 -10.32654 -10.32394
 Alpha  occ. eigenvalues --  -10.23087 -10.18300 -10.15314 -10.15295 -10.15218
 Alpha  occ. eigenvalues --  -10.14916 -10.14106 -10.13239 -10.12794 -10.11083
 Alpha  occ. eigenvalues --  -10.07846 -10.07575 -10.06564 -10.06524 -10.06161
 Alpha  occ. eigenvalues --  -10.06131 -10.06107 -10.05502 -10.05372 -10.05195
 Alpha  occ. eigenvalues --   -7.95249  -7.94686  -7.94345  -6.14760  -6.14721
 Alpha  occ. eigenvalues --   -6.14608  -6.14199  -6.14153  -6.14056  -6.13858
 Alpha  occ. eigenvalues --   -6.13809  -6.13729  -2.13538  -1.38244  -1.38059
 Alpha  occ. eigenvalues --   -1.37888  -1.37316  -1.36995  -1.36888  -1.27316
 Alpha  occ. eigenvalues --   -1.27293  -1.26982  -1.26841  -1.26835  -1.26794
 Alpha  occ. eigenvalues --   -1.19733  -1.19009  -1.18553  -1.17762  -1.07940
 Alpha  occ. eigenvalues --   -1.06702  -1.05989  -1.05833  -1.05489  -1.04652
 Alpha  occ. eigenvalues --   -1.04132  -1.03709  -1.00873  -0.97973  -0.96711
 Alpha  occ. eigenvalues --   -0.93571  -0.91378  -0.88627  -0.85568  -0.81474
 Alpha  occ. eigenvalues --   -0.79613  -0.78888  -0.78831  -0.78704  -0.78544
 Alpha  occ. eigenvalues --   -0.78356  -0.76407  -0.75470  -0.74096  -0.71617
 Alpha  occ. eigenvalues --   -0.71147  -0.70912  -0.69129  -0.68170  -0.67356
 Alpha  occ. eigenvalues --   -0.67230  -0.66957  -0.66898  -0.66847  -0.66792
 Alpha  occ. eigenvalues --   -0.66591  -0.64515  -0.63341  -0.62716  -0.62384
 Alpha  occ. eigenvalues --   -0.61789  -0.61341  -0.60572  -0.59091  -0.57857
 Alpha  occ. eigenvalues --   -0.57011  -0.56697  -0.56213  -0.55984  -0.55768
 Alpha  occ. eigenvalues --   -0.55587  -0.55265  -0.54943  -0.54699  -0.54595
 Alpha  occ. eigenvalues --   -0.54554  -0.54437  -0.54259  -0.53672  -0.53409
 Alpha  occ. eigenvalues --   -0.53286  -0.52950  -0.52785  -0.52454  -0.52349
 Alpha  occ. eigenvalues --   -0.52120  -0.51451  -0.51327  -0.51048  -0.50924
 Alpha  occ. eigenvalues --   -0.50825  -0.50485  -0.50360  -0.50265  -0.49865
 Alpha  occ. eigenvalues --   -0.49015  -0.48632  -0.48372  -0.48302  -0.47736
 Alpha  occ. eigenvalues --   -0.47678  -0.47374  -0.47186  -0.46408  -0.46251
 Alpha  occ. eigenvalues --   -0.46126  -0.45704  -0.45198  -0.44695  -0.44281
 Alpha  occ. eigenvalues --   -0.44067  -0.43989  -0.43355  -0.43211  -0.42443
 Alpha  occ. eigenvalues --   -0.42229  -0.41960  -0.41766  -0.41665  -0.41649
 Alpha  occ. eigenvalues --   -0.41217  -0.41150  -0.40865  -0.40211  -0.39920
 Alpha  occ. eigenvalues --   -0.39586  -0.39436  -0.39098  -0.38958  -0.38428
 Alpha  occ. eigenvalues --   -0.38182  -0.38142  -0.37931  -0.37634  -0.37319
 Alpha  occ. eigenvalues --   -0.36877  -0.36532  -0.36154  -0.35918  -0.35490
 Alpha  occ. eigenvalues --   -0.34984  -0.34656  -0.31383  -0.29794  -0.29695
 Alpha  occ. eigenvalues --   -0.26812
 Alpha virt. eigenvalues --   -0.10148  -0.06128  -0.03956  -0.03003  -0.00459
 Alpha virt. eigenvalues --    0.00452   0.00801   0.00977   0.02391   0.02697
 Alpha virt. eigenvalues --    0.03810   0.03836   0.05218   0.06974   0.07241

 Mulliken charges:
               1
     1  C   -0.031768
     2  C    0.003202
     3  C    0.004274
     4  C    0.014994
     5  C    0.002936
     6  C    0.008217
     7  C   -0.099244
     8  C    0.035014
     9  C    0.015290
    10  H    0.005888
    11  H    0.013405
    12  H    0.016019
    13  H    0.012799
    14  H    0.002588
    15  O   -0.311717
    16  O   -0.294995
    17  O   -0.440598
    18  O   -0.442370
    19  O   -0.422927
    20  S    0.882358
    21  S    0.865303
    22  S    0.865165
    23  O   -0.446777
    24  O   -0.414215
    25  O   -0.433991
    26  O   -0.406899
    27  O   -0.449488
    28  O   -0.422785
    29  C    0.431954
    30  C    0.432135
    31  C    0.418981
    32  F   -0.125481
    33  F   -0.116461
    34  F   -0.129661
    35  F   -0.107020
    36  F   -0.126601
    37  F   -0.126756
    38  F   -0.128874
    39  F   -0.115542
    40  F   -0.126959
    41  C    0.019429
    42  H    0.025782
    43  C   -0.094070
    44  C   -0.115381
    45  C   -0.202459
    46  C    0.038332
    47  C    0.079318
    48  C    0.152795
    49  H    0.093749
    50  H    0.080872
    51  H    0.076775
    52  N    0.142001
    53  N    0.154568
    54  N   -0.097669
    55  N    0.014814
    56  Sc   0.270576
    57  C    0.156860
    58  H    0.045462
    59  H    0.026573
    60  C    0.209139
    61  H    0.113783
    62  C    0.105182
    63  H    0.075857
    64  H    0.037990
    65  H    0.036265
    66  C    0.106496
    67  H    0.015453
    68  H    0.038297
    69  H    0.083823
 Sum of Mulliken charges =  -0.00000

 Dipole moment (field-independent basis, Debye):
    X=            -19.7605    Y=            -12.1099    Z=              2.3089  Tot=             23.2907
 Quadrupole moment (field-independent basis, Debye-Ang):
   XX=           -325.3783   YY=           -309.4831   ZZ=           -331.3522
   XY=            -19.1566   XZ=            -11.2501   YZ=            -18.8568

 Normal termination of Gaussian 16 at Wed Mar  5 13:14:39 2025.
