 Gaussian 16, Revision A.03,
 Gaussian 16:  ES64L-G16RevA.03 25-Dec-2016

 ----------------------------------------------------------------------
 #P UMN15/genecp scf=(maxcyc=500) irc=(maxpoints=100,recorrect=never,ca
 lcfc,maxcycles=500,nogradstop) scrf=(smd,solvent=DiChloroEthane)
 ----------------------------------------------------------------------

 ---
 Opt
 ---
 Symbolic Z-matrix:
 Charge =  0 Multiplicity = 1

 SCF Done:  E(UMN15) =  -5295.98552787     A.U. after   19 cycles
 SCF Done:  E(UMN15) =  -5295.98584874     A.U. after   12 cycles
 SCF Done:  E(UMN15) =  -5295.98665805     A.U. after   12 cycles
 SCF Done:  E(UMN15) =  -5295.98776179     A.U. after   12 cycles
 SCF Done:  E(UMN15) =  -5295.98897523     A.U. after   12 cycles
 SCF Done:  E(UMN15) =  -5295.99015851     A.U. after   12 cycles
 SCF Done:  E(UMN15) =  -5295.99125139     A.U. after   11 cycles
 SCF Done:  E(UMN15) =  -5295.99224072     A.U. after   11 cycles
 SCF Done:  E(UMN15) =  -5295.99312329     A.U. after   11 cycles
 SCF Done:  E(UMN15) =  -5295.99390110     A.U. after   11 cycles
 SCF Done:  E(UMN15) =  -5295.98856521     A.U. after   12 cycles
 SCF Done:  E(UMN15) =  -5295.99058785     A.U. after   12 cycles
 SCF Done:  E(UMN15) =  -5295.99266774     A.U. after   12 cycles
 SCF Done:  E(UMN15) =  -5295.99437474     A.U. after   12 cycles
 SCF Done:  E(UMN15) =  -5295.99536749     A.U. after   12 cycles
 SCF Done:  E(UMN15) =  -5295.99579688     A.U. after   11 cycles
 SCF Done:  E(UMN15) =  -5295.99605675     A.U. after   11 cycles
 SCF Done:  E(UMN15) =  -5295.99601270     A.U. after   11 cycles
 SCF Done:  E(UMN15) =  -5295.99604597     A.U. after   12 cycles
 SCF Done:  E(UMN15) =  -5295.99575942     A.U. after   11 cycles

                          Input orientation:
 ---------------------------------------------------------------------
 Center     Atomic      Atomic             Coordinates (Angstroms)
 Number     Number       Type             X           Y           Z
 ---------------------------------------------------------------------
      1          6           0       -2.390323   -0.389648    0.870546
      2          6           0       -1.911966    0.244566   -0.443930
      3          6           0       -1.313703   -0.287145    1.969144
      4          8           0       -0.137911   -0.525671    1.701211
      5          8           0       -0.763669    0.020308   -0.829334
      6          8           0        3.003637   -1.105680    1.071714
      7          8           0        2.247831   -0.396522   -1.940335
      8          8           0        0.128713    2.107410    0.747680
      9         16           0        1.015236    3.032556   -0.022537
     10         16           0        3.518756   -0.043710    1.998558
     11         16           0        1.992981   -1.876917   -1.942082
     12          8           0        1.943095    2.138403   -0.788232
     13          8           0        1.581533    4.162570    0.663307
     14          8           0        2.539357    1.075587    1.855362
     15          8           0        3.923687   -0.438884    3.318744
     16          8           0        1.224158   -2.129114   -0.690564
     17          8           0        1.495727   -2.462830   -3.159946
     18          6           0        3.671537   -2.642280   -1.650116
     19          6           0        5.015465    0.558898    1.114862
     20          6           0       -0.088445    3.728544   -1.331664
     21          9           0        3.567274   -3.558065   -0.709518
     22          9           0        4.538013   -1.719523   -1.283149
     23          9           0        4.075790   -3.201583   -2.773189
     24          9           0        4.648680    0.948532   -0.095964
     25          9           0        5.890156   -0.422014    1.020663
     26          9           0        5.542892    1.572078    1.770079
     27          9           0       -0.275699    2.819047   -2.273448
     28          9           0        0.471458    4.798840   -1.855046
     29          9           0       -1.250941    4.050437   -0.793516
     30          6           0       -4.908348   -0.177836    1.220447
     31          6           0       -4.971808   -1.734377    1.137614
     32          6           0       -6.294130   -2.234496    0.714679
     33          6           0       -4.760845   -2.241877    2.519102
     34          6           0       -1.587588   -2.699476   -0.078196
     35          6           0       -3.245789   -2.675955   -1.828639
     36          6           0       -1.906587   -2.990050   -1.349270
     37          1           0       -0.618606   -2.946208    0.354114
     38          1           0       -3.506429   -2.775072   -2.885115
     39          1           0       -1.194180   -3.471133   -2.020386
     40          7           0       -7.343185   -2.637534    0.442866
     41          7           0       -4.586787   -2.595400    3.606864
     42          7           0       -3.913060   -2.272350    0.295466
     43          7           0       -4.203505   -2.345552   -1.028382
     44          6           0       -2.582635   -1.961463    0.765998
     45          1           0       -2.519014   -2.345542    1.809246
     46          1           0       -5.367629    0.091813    2.182798
     47          6           0       -5.630147    0.646617    0.169161
     48          6           0       -5.763030    2.007620    0.487851
     49          6           0       -6.116483    0.185998   -1.059732
     50          6           0       -6.344294    2.897361   -0.413125
     51          1           0       -5.391932    2.370425    1.450696
     52          6           0       -6.712644    1.077704   -1.957254
     53          1           0       -6.011116   -0.859420   -1.349085
     54          6           0       -6.821790    2.431895   -1.642380
     55          1           0       -6.433423    3.954324   -0.153120
     56          1           0       -7.085915    0.704375   -2.913225
     57          1           0       -7.282413    3.124793   -2.350025
     58         71           0        1.306429    0.112921    0.087440
     59          8           0       -3.542755    0.227944    1.381832
     60          6           0       -1.764542   -0.018407    3.351547
     61          1           0       -2.184427    1.000428    3.387184
     62          1           0       -2.585209   -0.703188    3.621392
     63          1           0       -0.920224   -0.119632    4.042462
     64          6           0       -2.830612    1.092815   -1.229902
     65          1           0       -3.667776    0.468810   -1.583099
     66          1           0       -3.273656    1.866495   -0.582384
     67          1           0       -2.302438    1.528750   -2.085066
 ---------------------------------------------------------------------

 Alpha  occ. eigenvalues --  -88.06723 -88.06463 -88.06241 -24.34677 -24.34657
 Alpha  occ. eigenvalues --  -24.34526 -24.34407 -24.34400 -24.34368 -24.34026
 Alpha  occ. eigenvalues --  -24.33930 -24.33914 -18.88247 -18.87816 -18.87717
 Alpha  occ. eigenvalues --  -18.85416 -18.85240 -18.84987 -18.84907 -18.84872
 Alpha  occ. eigenvalues --  -18.84528 -18.84252 -18.83717 -18.83709 -17.83357
 Alpha  occ. eigenvalues --  -14.19863 -14.16443 -14.14594 -14.14008 -11.58223
 Alpha  occ. eigenvalues --  -11.58190 -11.58172 -10.33995 -10.33932 -10.33734
 Alpha  occ. eigenvalues --  -10.21292 -10.21028 -10.20778 -10.17745 -10.16483
 Alpha  occ. eigenvalues --  -10.15239 -10.13748 -10.13409 -10.10869 -10.08799
 Alpha  occ. eigenvalues --  -10.08008 -10.07882 -10.07399 -10.07025 -10.06721
 Alpha  occ. eigenvalues --  -10.06654 -10.06412 -10.06378 -10.06319  -7.96580
 Alpha  occ. eigenvalues --   -7.96275  -7.96094  -6.16100  -6.16048  -6.15917
 Alpha  occ. eigenvalues --   -6.15799  -6.15745  -6.15628  -6.15620  -6.15561
 Alpha  occ. eigenvalues --   -6.15435  -5.43238  -5.43187  -5.43172  -5.43156
 Alpha  occ. eigenvalues --   -5.43148  -2.36349  -1.38311  -1.38298  -1.37868
 Alpha  occ. eigenvalues --   -1.28316  -1.28296  -1.28266  -1.28252  -1.27802
 Alpha  occ. eigenvalues --   -1.27749  -1.25718  -1.25715  -1.24813  -1.20736
 Alpha  occ. eigenvalues --   -1.19826  -1.19110  -1.15116  -1.13196  -1.12855
 Alpha  occ. eigenvalues --   -1.09772  -1.08025  -1.07455  -1.07067  -1.05966
 Alpha  occ. eigenvalues --   -1.05629  -1.05424  -0.99012  -0.96980  -0.93914
 Alpha  occ. eigenvalues --   -0.92048  -0.89998  -0.85980  -0.83457  -0.82252
 Alpha  occ. eigenvalues --   -0.80906  -0.80734  -0.80417  -0.79864  -0.78940
 Alpha  occ. eigenvalues --   -0.78410  -0.75287  -0.72749  -0.72647  -0.72525
 Alpha  occ. eigenvalues --   -0.72080  -0.69967  -0.68277  -0.68230  -0.68164
 Alpha  occ. eigenvalues --   -0.68149  -0.67734  -0.67692  -0.66452  -0.66246
 Alpha  occ. eigenvalues --   -0.64995  -0.64126  -0.63729  -0.63522  -0.63230
 Alpha  occ. eigenvalues --   -0.63124  -0.63049  -0.62948  -0.62907  -0.62889
 Alpha  occ. eigenvalues --   -0.62815  -0.62525  -0.62324  -0.61768  -0.60189
 Alpha  occ. eigenvalues --   -0.60041  -0.59722  -0.58116  -0.57591  -0.57097
 Alpha  occ. eigenvalues --   -0.56696  -0.56440  -0.56215  -0.55730  -0.55628
 Alpha  occ. eigenvalues --   -0.55498  -0.55367  -0.55192  -0.54825  -0.54471
 Alpha  occ. eigenvalues --   -0.54388  -0.54313  -0.54118  -0.53837  -0.53693
 Alpha  occ. eigenvalues --   -0.53352  -0.53070  -0.52530  -0.52397  -0.52368
 Alpha  occ. eigenvalues --   -0.52087  -0.51944  -0.51800  -0.51638  -0.51319
 Alpha  occ. eigenvalues --   -0.51199  -0.50825  -0.50730  -0.49674  -0.49512
 Alpha  occ. eigenvalues --   -0.49009  -0.48929  -0.48275  -0.47784  -0.47609
 Alpha  occ. eigenvalues --   -0.47022  -0.46306  -0.45970  -0.45652  -0.45440
 Alpha  occ. eigenvalues --   -0.45317  -0.45047  -0.44968  -0.44497  -0.44216
 Alpha  occ. eigenvalues --   -0.43522  -0.43389  -0.43096  -0.42900  -0.42669
 Alpha  occ. eigenvalues --   -0.42506  -0.42120  -0.41911  -0.41327  -0.41011
 Alpha  occ. eigenvalues --   -0.40708  -0.40650  -0.40272  -0.40053  -0.39945
 Alpha  occ. eigenvalues --   -0.39850  -0.39628  -0.38954  -0.38339  -0.38305
 Alpha  occ. eigenvalues --   -0.37960  -0.37823  -0.37645  -0.37119  -0.36750
 Alpha  occ. eigenvalues --   -0.36657  -0.35410  -0.34068  -0.33289  -0.29949
 Alpha  occ. eigenvalues --   -0.29867  -0.27603
 Alpha virt. eigenvalues --   -0.06803  -0.05286  -0.04315  -0.01175  -0.00888
 Alpha virt. eigenvalues --    0.00324   0.01261   0.03748   0.04710   0.05076
 Alpha virt. eigenvalues --    0.05549   0.05749   0.05974   0.06633   0.07618

  Beta  occ. eigenvalues --  -88.06723 -88.06463 -88.06241 -24.34677 -24.34657
  Beta  occ. eigenvalues --  -24.34526 -24.34407 -24.34400 -24.34368 -24.34026
  Beta  occ. eigenvalues --  -24.33930 -24.33914 -18.88247 -18.87816 -18.87717
  Beta  occ. eigenvalues --  -18.85416 -18.85240 -18.84987 -18.84907 -18.84872
  Beta  occ. eigenvalues --  -18.84528 -18.84252 -18.83717 -18.83709 -17.83357
  Beta  occ. eigenvalues --  -14.19863 -14.16443 -14.14594 -14.14008 -11.58223
  Beta  occ. eigenvalues --  -11.58190 -11.58172 -10.33995 -10.33932 -10.33734
  Beta  occ. eigenvalues --  -10.21292 -10.21028 -10.20778 -10.17745 -10.16483
  Beta  occ. eigenvalues --  -10.15239 -10.13748 -10.13409 -10.10869 -10.08799
  Beta  occ. eigenvalues --  -10.08008 -10.07882 -10.07399 -10.07025 -10.06721
  Beta  occ. eigenvalues --  -10.06654 -10.06412 -10.06378 -10.06319  -7.96580
  Beta  occ. eigenvalues --   -7.96275  -7.96094  -6.16100  -6.16048  -6.15917
  Beta  occ. eigenvalues --   -6.15799  -6.15745  -6.15628  -6.15620  -6.15561
  Beta  occ. eigenvalues --   -6.15435  -5.43238  -5.43187  -5.43172  -5.43156
  Beta  occ. eigenvalues --   -5.43148  -2.36349  -1.38311  -1.38298  -1.37868
  Beta  occ. eigenvalues --   -1.28316  -1.28296  -1.28266  -1.28252  -1.27802
  Beta  occ. eigenvalues --   -1.27749  -1.25718  -1.25715  -1.24813  -1.20736
  Beta  occ. eigenvalues --   -1.19826  -1.19110  -1.15116  -1.13196  -1.12855
  Beta  occ. eigenvalues --   -1.09772  -1.08025  -1.07455  -1.07067  -1.05966
  Beta  occ. eigenvalues --   -1.05629  -1.05424  -0.99012  -0.96980  -0.93914
  Beta  occ. eigenvalues --   -0.92048  -0.89998  -0.85980  -0.83457  -0.82252
  Beta  occ. eigenvalues --   -0.80906  -0.80734  -0.80417  -0.79864  -0.78940
  Beta  occ. eigenvalues --   -0.78410  -0.75287  -0.72749  -0.72647  -0.72525
  Beta  occ. eigenvalues --   -0.72080  -0.69967  -0.68277  -0.68230  -0.68164
  Beta  occ. eigenvalues --   -0.68149  -0.67734  -0.67692  -0.66452  -0.66246
  Beta  occ. eigenvalues --   -0.64995  -0.64126  -0.63729  -0.63522  -0.63230
  Beta  occ. eigenvalues --   -0.63124  -0.63049  -0.62948  -0.62907  -0.62889
  Beta  occ. eigenvalues --   -0.62815  -0.62525  -0.62324  -0.61768  -0.60189
  Beta  occ. eigenvalues --   -0.60041  -0.59722  -0.58116  -0.57591  -0.57097
  Beta  occ. eigenvalues --   -0.56696  -0.56440  -0.56215  -0.55730  -0.55628
  Beta  occ. eigenvalues --   -0.55498  -0.55367  -0.55192  -0.54825  -0.54471
  Beta  occ. eigenvalues --   -0.54388  -0.54313  -0.54118  -0.53837  -0.53693
  Beta  occ. eigenvalues --   -0.53352  -0.53070  -0.52530  -0.52397  -0.52368
  Beta  occ. eigenvalues --   -0.52087  -0.51944  -0.51800  -0.51638  -0.51319
  Beta  occ. eigenvalues --   -0.51199  -0.50825  -0.50730  -0.49674  -0.49512
  Beta  occ. eigenvalues --   -0.49009  -0.48929  -0.48275  -0.47784  -0.47609
  Beta  occ. eigenvalues --   -0.47022  -0.46306  -0.45970  -0.45652  -0.45440
  Beta  occ. eigenvalues --   -0.45317  -0.45047  -0.44968  -0.44497  -0.44216
  Beta  occ. eigenvalues --   -0.43522  -0.43389  -0.43096  -0.42900  -0.42669
  Beta  occ. eigenvalues --   -0.42506  -0.42120  -0.41911  -0.41327  -0.41011
  Beta  occ. eigenvalues --   -0.40708  -0.40650  -0.40272  -0.40053  -0.39945
  Beta  occ. eigenvalues --   -0.39850  -0.39628  -0.38954  -0.38339  -0.38305
  Beta  occ. eigenvalues --   -0.37960  -0.37823  -0.37645  -0.37119  -0.36750
  Beta  occ. eigenvalues --   -0.36657  -0.35410  -0.34068  -0.33289  -0.29949
  Beta  occ. eigenvalues --   -0.29867  -0.27603
  Beta virt. eigenvalues --   -0.06803  -0.05286  -0.04315  -0.01175  -0.00888
  Beta virt. eigenvalues --    0.00324   0.01261   0.03748   0.04710   0.05076
  Beta virt. eigenvalues --    0.05549   0.05749   0.05974   0.06633   0.07618

 Mulliken charges and spin densities:
               1          2
     1  C   -0.004514   0.000000
     2  C    0.076213   0.000000
     3  C    0.088733   0.000000
     4  O   -0.238220   0.000000
     5  O   -0.231528   0.000000
     6  O   -0.461331   0.000000
     7  O   -0.452700   0.000000
     8  O   -0.465753   0.000000
     9  S    0.864502   0.000000
    10  S    0.837928   0.000000
    11  S    0.845998   0.000000
    12  O   -0.454158   0.000000
    13  O   -0.397517   0.000000
    14  O   -0.449838   0.000000
    15  O   -0.391357   0.000000
    16  O   -0.456695   0.000000
    17  O   -0.404417   0.000000
    18  C    0.441062   0.000000
    19  C    0.441017   0.000000
    20  C    0.433315   0.000000
    21  F   -0.117161   0.000000
    22  F   -0.113036   0.000000
    23  F   -0.121383   0.000000
    24  F   -0.105456   0.000000
    25  F   -0.116978   0.000000
    26  F   -0.116093   0.000000
    27  F   -0.113225   0.000000
    28  F   -0.116611   0.000000
    29  F   -0.122916   0.000000
    30  C    0.323641   0.000000
    31  C   -0.154082   0.000000
    32  C   -0.178332   0.000000
    33  C   -0.146950   0.000000
    34  C    0.059457   0.000000
    35  C    0.021950   0.000000
    36  C    0.010319   0.000000
    37  H    0.074565   0.000000
    38  H    0.055338   0.000000
    39  H    0.033221   0.000000
    40  N    0.143108   0.000000
    41  N    0.115722   0.000000
    42  N   -0.186414   0.000000
    43  N   -0.026258   0.000000
    44  C    0.108075   0.000000
    45  H    0.080834   0.000000
    46  H    0.077185   0.000000
    47  C   -0.069938   0.000000
    48  C    0.005548   0.000000
    49  C    0.034945   0.000000
    50  C    0.001799   0.000000
    51  H    0.011456   0.000000
    52  C   -0.002739   0.000000
    53  H    0.001508   0.000000
    54  C    0.019051   0.000000
    55  H    0.015874   0.000000
    56  H    0.012324   0.000000
    57  H    0.017973   0.000000
    58  Lu   0.585037   0.000000
    59  O   -0.322295   0.000000
    60  C    0.129190   0.000000
    61  H    0.096602   0.000000
    62  H    0.051303   0.000000
    63  H    0.078502   0.000000
    64  C    0.162376   0.000000
    65  H    0.051683   0.000000
    66  H    0.066614   0.000000
    67  H    0.063925   0.000000
 Sum of Mulliken charges =  -0.00000   0.00000

 Dipole moment (field-independent basis, Debye):
    X=            -12.0761    Y=              1.0387    Z=             -0.9584  Tot=             12.1586
 Quadrupole moment (field-independent basis, Debye-Ang):
   XX=           -341.3677   YY=           -340.6454   ZZ=           -333.9615
   XY=            -34.5146   XZ=              1.8660   YZ=             -0.2437

  Exact polarizability:   0.000   0.000   0.000   0.000   0.000   0.000
 Approx polarizability: 458.877  -9.675 440.707  31.825  18.325 490.312

 Normal termination of Gaussian 16 at Sun May  4 12:10:55 2025.
