 Gaussian 16, Revision A.03,
 Gaussian 16:  ES64L-G16RevA.03 25-Dec-2016

 ----------------------------------------------------------------------
 # irc=(maxpoints=100,recorrect=never,calcfc,maxcycles=500,nogradstop)
 MN15/gen scrf=(smd,solvent=DiChloroEthane)
 ----------------------------------------------------------------------

 -----------------------------------------------------------
 IRC for Going from i2 to i3, where we are forming bond 7-66
 -----------------------------------------------------------
 Symbolic Z-matrix:
 Charge =  0 Multiplicity = 1

 SCF Done:  E(RMN15) =  -4931.92651422     A.U. after   15 cycles
 SCF Done:  E(RMN15) =  -4931.92684411     A.U. after   11 cycles
 SCF Done:  E(RMN15) =  -4931.92782903     A.U. after   11 cycles
 SCF Done:  E(RMN15) =  -4931.92938726     A.U. after   11 cycles
 SCF Done:  E(RMN15) =  -4931.93133937     A.U. after   11 cycles
 SCF Done:  E(RMN15) =  -4931.93342227     A.U. after   11 cycles
 SCF Done:  E(RMN15) =  -4931.93529410     A.U. after   11 cycles
 SCF Done:  E(RMN15) =  -4931.93660140     A.U. after   11 cycles
 SCF Done:  E(RMN15) =  -4931.93724620     A.U. after   10 cycles
 SCF Done:  E(RMN15) =  -4931.93756770     A.U. after   10 cycles
 SCF Done:  E(RMN15) =  -4931.93314476     A.U. after   11 cycles
 SCF Done:  E(RMN15) =  -4931.93349519     A.U. after   10 cycles
 SCF Done:  E(RMN15) =  -4931.93372205     A.U. after   10 cycles
 SCF Done:  E(RMN15) =  -4931.93391810     A.U. after   11 cycles
 SCF Done:  E(RMN15) =  -4931.93400858     A.U. after   11 cycles
 SCF Done:  E(RMN15) =  -4931.93424923     A.U. after   11 cycles
 SCF Done:  E(RMN15) =  -4931.93448695     A.U. after   10 cycles
 SCF Done:  E(RMN15) =  -4931.93476582     A.U. after   10 cycles
 SCF Done:  E(RMN15) =  -4931.93191623     A.U. after   11 cycles
 SCF Done:  E(RMN15) =  -4931.93356958     A.U. after   10 cycles

                          Input orientation:
 ---------------------------------------------------------------------
 Center     Atomic      Atomic             Coordinates (Angstroms)
 Number     Number       Type             X           Y           Z
 ---------------------------------------------------------------------
      1          6           0        5.741929   -0.659825    0.201401
      2          6           0        6.089236   -1.347256    1.374216
      3          6           0        7.276223   -2.079116    1.439243
      4          6           0        8.128770   -2.136557    0.334947
      5          6           0        7.791337   -1.455416   -0.836995
      6          6           0        6.605375   -0.722483   -0.901653
      7          6           0        1.830819   -0.228158    0.502885
      8          6           0        1.281311    0.109762   -0.759458
      9          6           0        0.935710   -0.316199    1.596062
     10          1           0        5.434130   -1.323596    2.247384
     11          1           0        7.532450   -2.612754    2.356005
     12          1           0        9.054172   -2.714275    0.382369
     13          1           0        8.448146   -1.496765   -1.709545
     14          1           0        6.335672   -0.191747   -1.820570
     15          8           0       -0.287121    0.024820    1.579835
     16          8           0        0.053687    0.201808   -1.044358
     17          8           0        2.162343    0.370776   -1.730108
     18          8           0        1.439231   -0.729562    2.750316
     19          6           0        1.647929    0.760247   -3.003906
     20          6           0        0.536839   -0.891661    3.844758
     21          1           0        2.515544    1.117549   -3.573431
     22          1           0        0.866983    1.569343   -2.907131
     23          1           0        1.209323   -0.115607   -3.510452
     24          1           0        1.121766   -1.320881    4.665832
     25          1           0       -0.282436   -1.564602    3.567149
     26          1           0        0.116414    0.077632    4.154602
     27          8           0       -3.335179    0.462630    1.371588
     28          8           0       -2.769164    0.754794   -1.508134
     29          8           0       -0.356689   -2.299781    0.168723
     30         16           0       -1.078999   -2.886817   -0.985020
     31         16           0       -3.763735   -0.867680    1.906728
     32         16           0       -2.517386    2.176584   -1.109277
     33          8           0       -2.083496   -1.854358   -1.400241
     34          8           0       -1.532951   -4.251737   -0.893504
     35          8           0       -2.740175   -1.819877    1.388956
     36          8           0       -4.144505   -0.949954    3.292051
     37          8           0       -1.653280    2.110958    0.095907
     38          8           0       -2.126257    3.094387   -2.155768
     39          6           0       -4.185489    2.772600   -0.509468
     40          6           0       -5.256968   -1.258255    0.906254
     41          6           0        0.167962   -2.870330   -2.378978
     42          9           0       -4.064473    3.274258    0.703635
     43          9           0       -5.051566    1.778040   -0.496418
     44          9           0       -4.619083    3.712439   -1.330578
     45          9           0       -4.935453   -1.182404   -0.373556
     46          9           0       -6.213159   -0.390806    1.177966
     47          9           0       -5.669924   -2.479440    1.188477
     48          9           0        0.354415   -4.100285   -2.813783
     49          9           0        1.323231   -2.386840   -1.945180
     50          9           0       -0.270061   -2.114437   -3.369135
     51          6           0        4.443623    0.122435    0.079490
     52          1           0        4.271548    0.320234   -0.986252
     53          6           0        4.617813    1.561090    0.692589
     54          6           0        5.780981    2.227956    0.076010
     55          6           0        4.831821    1.485636    2.147998
     56          6           0        1.149992    2.978997    0.794221
     57          6           0        2.325788    3.538510   -1.216654
     58          6           0        1.135450    3.552772   -0.451688
     59          1           0        0.268315    2.946263    1.434628
     60          1           0        2.386672    4.001821   -2.205332
     61          1           0        0.223057    3.988038   -0.877185
     62          7           0        6.725329    2.698654   -0.396705
     63          7           0        4.997416    1.378705    3.287698
     64          7           0        3.399305    2.379315    0.390842
     65          7           0        3.423850    2.949174   -0.798305
     66          6           0        2.340234    2.369406    1.207643
     67          1           0        2.462169    1.904737    2.187411
     68         21           0       -1.637468   -0.281843    0.079423
     69          6           0        3.266714   -0.678154    0.672826
     70          1           0        3.378136   -1.680491    0.226205
     71          1           0        3.443883   -0.816609    1.750032
 ---------------------------------------------------------------------

 Alpha  occ. eigenvalues -- -160.19954 -88.05910 -88.05297 -88.05222 -24.33956
 Alpha  occ. eigenvalues --  -24.33952 -24.33880 -24.33840 -24.33800 -24.33600
 Alpha  occ. eigenvalues --  -24.33390 -24.33367 -24.33338 -18.87875 -18.87411
 Alpha  occ. eigenvalues --  -18.84461 -18.84271 -18.83827 -18.83691 -18.83653
 Alpha  occ. eigenvalues --  -18.83524 -18.83290 -18.83189 -18.83102 -18.82917
 Alpha  occ. eigenvalues --  -18.82583 -17.18509 -14.48672 -14.48636 -14.48549
 Alpha  occ. eigenvalues --  -14.28891 -14.21103 -14.15544 -14.14543 -10.33289
 Alpha  occ. eigenvalues --  -10.33007 -10.32944 -10.22713 -10.20809 -10.20503
 Alpha  occ. eigenvalues --  -10.18545 -10.15198 -10.14562 -10.13895 -10.13069
 Alpha  occ. eigenvalues --  -10.12713 -10.11409 -10.10993 -10.10602 -10.07752
 Alpha  occ. eigenvalues --  -10.07745 -10.06439 -10.06389 -10.06110 -10.06055
 Alpha  occ. eigenvalues --  -10.06020 -10.06006  -7.95728  -7.95100  -7.94983
 Alpha  occ. eigenvalues --   -6.15241  -6.15199  -6.15080  -6.14616  -6.14568
 Alpha  occ. eigenvalues --   -6.14499  -6.14462  -6.14447  -6.14363  -2.14825
 Alpha  occ. eigenvalues --   -1.39463  -1.39295  -1.39165  -1.37654  -1.37529
 Alpha  occ. eigenvalues --   -1.37193  -1.27655  -1.27628  -1.27466  -1.27438
 Alpha  occ. eigenvalues --   -1.27157  -1.27049  -1.20257  -1.19441  -1.19191
 Alpha  occ. eigenvalues --   -1.17731  -1.16102  -1.15513  -1.07365  -1.06541
 Alpha  occ. eigenvalues --   -1.06189  -1.05990  -1.05132  -1.04871  -1.04510
 Alpha  occ. eigenvalues --   -1.04355  -1.00691  -0.97632  -0.96758  -0.93222
 Alpha  occ. eigenvalues --   -0.91384  -0.88516  -0.86255  -0.81899  -0.79996
 Alpha  occ. eigenvalues --   -0.79213  -0.79070  -0.78904  -0.78626  -0.78385
 Alpha  occ. eigenvalues --   -0.76640  -0.75341  -0.73696  -0.71966  -0.71588
 Alpha  occ. eigenvalues --   -0.71365  -0.69438  -0.68133  -0.67619  -0.67563
 Alpha  occ. eigenvalues --   -0.67546  -0.67386  -0.67131  -0.67068  -0.65564
 Alpha  occ. eigenvalues --   -0.64384  -0.63738  -0.63563  -0.62958  -0.62129
 Alpha  occ. eigenvalues --   -0.61608  -0.61369  -0.61172  -0.59698  -0.59157
 Alpha  occ. eigenvalues --   -0.58247  -0.57214  -0.57074  -0.56582  -0.56488
 Alpha  occ. eigenvalues --   -0.56003  -0.55956  -0.55774  -0.55524  -0.55408
 Alpha  occ. eigenvalues --   -0.55062  -0.54885  -0.54737  -0.54674  -0.54278
 Alpha  occ. eigenvalues --   -0.54143  -0.53726  -0.53609  -0.53357  -0.53157
 Alpha  occ. eigenvalues --   -0.52806  -0.52689  -0.52564  -0.51713  -0.51609
 Alpha  occ. eigenvalues --   -0.51423  -0.51341  -0.51119  -0.51042  -0.50667
 Alpha  occ. eigenvalues --   -0.50313  -0.50017  -0.48939  -0.48931  -0.48823
 Alpha  occ. eigenvalues --   -0.48451  -0.48145  -0.47611  -0.47416  -0.46738
 Alpha  occ. eigenvalues --   -0.46625  -0.46223  -0.45939  -0.45662  -0.45181
 Alpha  occ. eigenvalues --   -0.44908  -0.44588  -0.44143  -0.43957  -0.43693
 Alpha  occ. eigenvalues --   -0.43213  -0.42731  -0.42466  -0.42250  -0.41932
 Alpha  occ. eigenvalues --   -0.41761  -0.41643  -0.41109  -0.40555  -0.40388
 Alpha  occ. eigenvalues --   -0.40186  -0.39734  -0.39569  -0.39513  -0.39277
 Alpha  occ. eigenvalues --   -0.38952  -0.38809  -0.38739  -0.38403  -0.38185
 Alpha  occ. eigenvalues --   -0.38049  -0.37777  -0.37403  -0.37288  -0.37186
 Alpha  occ. eigenvalues --   -0.36622  -0.36247  -0.36012  -0.35548  -0.35382
 Alpha  occ. eigenvalues --   -0.34950  -0.29677  -0.29572  -0.26160
 Alpha virt. eigenvalues --   -0.10159  -0.06002  -0.03025  -0.01927  -0.00405
 Alpha virt. eigenvalues --   -0.00216   0.00677   0.01052   0.01441   0.01475
 Alpha virt. eigenvalues --    0.02849   0.04190   0.05815   0.06021   0.07108

 Mulliken charges:
               1
     1  C   -0.023758
     2  C   -0.002530
     3  C    0.002314
     4  C    0.014374
     5  C    0.003102
     6  C   -0.001892
     7  C   -0.162627
     8  C    0.201375
     9  C    0.248985
    10  H    0.005518
    11  H    0.011757
    12  H    0.015201
    13  H    0.012964
    14  H    0.004432
    15  O   -0.325082
    16  O   -0.290771
    17  O   -0.283026
    18  O   -0.272459
    19  C    0.156168
    20  C    0.164812
    21  H    0.060071
    22  H    0.052057
    23  H    0.055608
    24  H    0.059284
    25  H    0.060322
    26  H    0.054326
    27  O   -0.436912
    28  O   -0.437954
    29  O   -0.426148
    30  S    0.887863
    31  S    0.867070
    32  S    0.864097
    33  O   -0.443373
    34  O   -0.406367
    35  O   -0.424365
    36  O   -0.397064
    37  O   -0.438690
    38  O   -0.418358
    39  C    0.437767
    40  C    0.441369
    41  C    0.420769
    42  F   -0.121847
    43  F   -0.115422
    44  F   -0.128348
    45  F   -0.104785
    46  F   -0.122602
    47  F   -0.123726
    48  F   -0.120803
    49  F   -0.123131
    50  F   -0.115937
    51  C    0.060109
    52  H    0.035710
    53  C   -0.082345
    54  C   -0.154127
    55  C   -0.196684
    56  C    0.072724
    57  C    0.056992
    58  C    0.075258
    59  H    0.090906
    60  H    0.094930
    61  H    0.069582
    62  N    0.142606
    63  N    0.148158
    64  N   -0.109131
    65  N    0.021945
    66  C    0.218969
    67  H    0.103370
    68  Sc   0.241115
    69  C    0.203040
    70  H    0.052767
    71  H    0.020479
 Sum of Mulliken charges =  -0.00000

 Dipole moment (field-independent basis, Debye):
    X=             15.1662    Y=              9.7266    Z=              0.0009  Tot=             18.0172
 Quadrupole moment (field-independent basis, Debye-Ang):
   XX=           -348.7503   YY=           -327.0063   ZZ=           -323.0583
   XY=            -14.2093   XZ=             -2.9468   YZ=             -2.0313

  Exact polarizability:   0.000   0.000   0.000   0.000   0.000   0.000
 Approx polarizability: 508.212 -32.083 431.873 -23.793 -58.205 529.441

 Normal termination of Gaussian 16 at Wed Mar 12 02:45:56 2025.
