 Gaussian 16, Revision A.03,
 Gaussian 16:  ES64L-G16RevA.03 25-Dec-2016

 ----------------------------------------------------------------------
 #P UMN15/genecp scf=(maxcyc=500) opt scrf=(smd,solvent=DiChloroEthane)
 ----------------------------------------------------------------------

 ---
 Opt
 ---
 Symbolic Z-matrix:
 Charge =  0 Multiplicity = 1

 SCF Done:  E(UMN15) =  -5295.97410859     A.U. after   19 cycles
 SCF Done:  E(UMN15) =  -5296.00316087     A.U. after   14 cycles
 SCF Done:  E(UMN15) =  -5296.00750285     A.U. after   13 cycles
 SCF Done:  E(UMN15) =  -5296.00692717     A.U. after   14 cycles
 SCF Done:  E(UMN15) =  -5296.00928153     A.U. after   13 cycles
 SCF Done:  E(UMN15) =  -5296.01008677     A.U. after   12 cycles
 SCF Done:  E(UMN15) =  -5296.01033398     A.U. after   13 cycles
 SCF Done:  E(UMN15) =  -5296.01065763     A.U. after   11 cycles
 SCF Done:  E(UMN15) =  -5296.01095893     A.U. after   12 cycles
 SCF Done:  E(UMN15) =  -5296.01107476     A.U. after   12 cycles
 SCF Done:  E(UMN15) =  -5296.01369590     A.U. after    8 cycles
 SCF Done:  E(UMN15) =  -5296.01369908     A.U. after    8 cycles
 SCF Done:  E(UMN15) =  -5296.01370095     A.U. after    7 cycles
 SCF Done:  E(UMN15) =  -5296.01370294     A.U. after    8 cycles
 SCF Done:  E(UMN15) =  -5296.01370449     A.U. after    8 cycles
 SCF Done:  E(UMN15) =  -5296.01370581     A.U. after    7 cycles
 SCF Done:  E(UMN15) =  -5296.01370625     A.U. after    7 cycles
 SCF Done:  E(UMN15) =  -5296.01370677     A.U. after    7 cycles
 SCF Done:  E(UMN15) =  -5296.01370722     A.U. after    6 cycles
 SCF Done:  E(UMN15) =  -5296.01370748     A.U. after    6 cycles
 Optimization completed.
    -- Stationary point found.

                         Standard orientation:
 ---------------------------------------------------------------------
 Center     Atomic      Atomic             Coordinates (Angstroms)
 Number     Number       Type             X           Y           Z
 ---------------------------------------------------------------------
      1          6           0        5.857624   -0.695264    0.334132
      2          6           0        6.963820   -0.841160   -0.512145
      3          6           0        8.057409   -1.607320   -0.107116
      4          6           0        8.045525   -2.236862    1.140115
      5          6           0        6.939403   -2.098240    1.982407
      6          6           0        5.846194   -1.327534    1.584075
      7          6           0        2.276266    0.325274    0.334302
      8          6           0        1.602461   -0.008883   -0.996003
      9          6           0        1.404684   -0.113781    1.513922
     10          1           0        6.963541   -0.354371   -1.491581
     11          1           0        8.917063   -1.718975   -0.771161
     12          1           0        8.899297   -2.841113    1.454845
     13          1           0        6.926233   -2.593116    2.955785
     14          1           0        4.979091   -1.218340    2.239031
     15          8           0        0.196495    0.116885    1.500748
     16          8           0        0.416639    0.292101   -1.153550
     17          8           0       -2.983516    0.699215    1.578253
     18          8           0       -2.766628    0.823902   -1.626889
     19          8           0       -0.223696   -2.167643   -0.107310
     20         16           0       -1.266568   -2.925237   -0.865213
     21         16           0       -3.309214   -0.586143    2.282314
     22         16           0       -2.518824    2.264724   -1.278717
     23          8           0       -2.325132   -1.914470   -1.188687
     24          8           0       -1.683327   -4.202624   -0.353089
     25          8           0       -2.373504   -1.581984    1.679017
     26          8           0       -3.453806   -0.555416    3.711033
     27          8           0       -1.555965    2.218163   -0.142176
     28          8           0       -2.228950    3.167906   -2.362326
     29          6           0       -4.127670    2.848700   -0.534015
     30          6           0       -4.947256   -1.018270    1.563725
     31          6           0       -0.485689   -3.263923   -2.503607
     32          9           0       -3.867199    3.529284    0.562973
     33          9           0       -4.900579    1.819659   -0.249928
     34          9           0       -4.734152    3.626533   -1.408091
     35          9           0       -4.819533   -1.053095    0.246462
     36          9           0       -5.826493   -0.096638    1.901086
     37          9           0       -5.335699   -2.195881    2.006221
     38          9           0       -0.445163   -2.146353   -3.211021
     39          9           0       -1.196533   -4.166921   -3.145850
     40          9           0        0.742380   -3.711185   -2.315947
     41          6           0        4.710102    0.176602   -0.099270
     42          1           0        4.650648    0.192931   -1.199502
     43          6           0        4.867411    1.677375    0.306450
     44          6           0        6.023319    2.278197   -0.383258
     45          6           0        5.056275    1.773781    1.769405
     46          6           0        1.304590    2.767889    0.219260
     47          6           0        2.446873    3.031663   -1.880488
     48          6           0        1.301584    3.285670   -1.021992
     49          1           0        0.484336    2.912091    0.921657
     50          1           0        2.412602    3.252588   -2.950267
     51          1           0        0.459876    3.867642   -1.401301
     52          7           0        6.953688    2.707813   -0.918977
     53          7           0        5.172061    1.789568    2.920443
     54          7           0        3.638330    2.373779   -0.073741
     55          7           0        3.570923    2.590639   -1.418432
     56          6           0        2.460294    1.908621    0.611633
     57          1           0        2.652376    1.976238    1.694370
     58         71           0       -1.504812   -0.140802    0.020486
     59          8           0        3.519983   -0.304460    0.490855
     60          6           0        2.086194   -0.722201    2.676718
     61          1           0        2.521029   -1.683149    2.355821
     62          1           0        2.933737   -0.088057    2.986722
     63          1           0        1.372499   -0.868256    3.494424
     64          6           0        2.360857   -0.738334   -2.043992
     65          1           0        3.081543   -0.056467   -2.523567
     66          1           0        2.926634   -1.567361   -1.593972
     67          1           0        1.666192   -1.094669   -2.810712
 ---------------------------------------------------------------------

 The electronic state is 1-A.
 Alpha  occ. eigenvalues --  -88.06762 -88.06533 -88.06366 -24.34753 -24.34682
 Alpha  occ. eigenvalues --  -24.34563 -24.34440 -24.34432 -24.34405 -24.34113
 Alpha  occ. eigenvalues --  -24.34017 -24.34002 -18.88327 -18.88249 -18.87790
 Alpha  occ. eigenvalues --  -18.85456 -18.85265 -18.85153 -18.84985 -18.84965
 Alpha  occ. eigenvalues --  -18.84619 -18.84294 -18.83850 -18.83761 -17.83541
 Alpha  occ. eigenvalues --  -14.19859 -14.16556 -14.14495 -14.13863 -11.58413
 Alpha  occ. eigenvalues --  -11.58373 -11.58352 -10.34028 -10.33984 -10.33832
 Alpha  occ. eigenvalues --  -10.21369 -10.20953 -10.20399 -10.17726 -10.16339
 Alpha  occ. eigenvalues --  -10.15298 -10.13617 -10.13144 -10.11247 -10.08991
 Alpha  occ. eigenvalues --  -10.08024 -10.07910 -10.07479 -10.07455 -10.06767
 Alpha  occ. eigenvalues --  -10.06698 -10.06252 -10.06220 -10.06203  -7.96617
 Alpha  occ. eigenvalues --   -7.96347  -7.96219  -6.16138  -6.16085  -6.15954
 Alpha  occ. eigenvalues --   -6.15872  -6.15817  -6.15746  -6.15698  -6.15686
 Alpha  occ. eigenvalues --   -6.15557  -5.43425  -5.43372  -5.43353  -5.43343
 Alpha  occ. eigenvalues --   -5.43332  -2.36525  -1.38356  -1.38330  -1.37955
 Alpha  occ. eigenvalues --   -1.28348  -1.28337  -1.28306  -1.28296  -1.27888
 Alpha  occ. eigenvalues --   -1.27848  -1.25920  -1.25805  -1.24925  -1.20813
 Alpha  occ. eigenvalues --   -1.19878  -1.19195  -1.15652  -1.13667  -1.12784
 Alpha  occ. eigenvalues --   -1.10110  -1.08075  -1.07536  -1.07169  -1.05999
 Alpha  occ. eigenvalues --   -1.05721  -1.05537  -0.98767  -0.96821  -0.93785
 Alpha  occ. eigenvalues --   -0.92124  -0.89873  -0.86124  -0.83568  -0.82351
 Alpha  occ. eigenvalues --   -0.80774  -0.80633  -0.80495  -0.79977  -0.78964
 Alpha  occ. eigenvalues --   -0.78388  -0.74646  -0.73243  -0.72684  -0.72594
 Alpha  occ. eigenvalues --   -0.72170  -0.70114  -0.68311  -0.68260  -0.68198
 Alpha  occ. eigenvalues --   -0.68191  -0.67818  -0.67769  -0.66853  -0.66370
 Alpha  occ. eigenvalues --   -0.64967  -0.64163  -0.63834  -0.63574  -0.63309
 Alpha  occ. eigenvalues --   -0.63270  -0.63203  -0.63112  -0.63084  -0.63024
 Alpha  occ. eigenvalues --   -0.62696  -0.62644  -0.62434  -0.61766  -0.60449
 Alpha  occ. eigenvalues --   -0.60050  -0.59562  -0.58205  -0.57633  -0.57063
 Alpha  occ. eigenvalues --   -0.56622  -0.56432  -0.56250  -0.55802  -0.55584
 Alpha  occ. eigenvalues --   -0.55534  -0.55467  -0.55255  -0.54931  -0.54738
 Alpha  occ. eigenvalues --   -0.54493  -0.54442  -0.54383  -0.54068  -0.53767
 Alpha  occ. eigenvalues --   -0.53680  -0.53053  -0.52849  -0.52417  -0.52319
 Alpha  occ. eigenvalues --   -0.52148  -0.51979  -0.51764  -0.51706  -0.51403
 Alpha  occ. eigenvalues --   -0.51101  -0.50746  -0.50142  -0.49678  -0.49539
 Alpha  occ. eigenvalues --   -0.49163  -0.49097  -0.48675  -0.47898  -0.47570
 Alpha  occ. eigenvalues --   -0.46717  -0.46569  -0.46036  -0.45670  -0.45631
 Alpha  occ. eigenvalues --   -0.45255  -0.44997  -0.44704  -0.44441  -0.44280
 Alpha  occ. eigenvalues --   -0.43591  -0.43404  -0.43228  -0.43003  -0.42756
 Alpha  occ. eigenvalues --   -0.42295  -0.42059  -0.41792  -0.41438  -0.41142
 Alpha  occ. eigenvalues --   -0.40832  -0.40765  -0.40364  -0.40185  -0.40101
 Alpha  occ. eigenvalues --   -0.39918  -0.39429  -0.39025  -0.38401  -0.38398
 Alpha  occ. eigenvalues --   -0.38053  -0.37912  -0.37712  -0.37169  -0.36928
 Alpha  occ. eigenvalues --   -0.36719  -0.36036  -0.34217  -0.33820  -0.30118
 Alpha  occ. eigenvalues --   -0.29890  -0.27658
 Alpha virt. eigenvalues --   -0.07106  -0.05308  -0.04697  -0.01294   0.00506
 Alpha virt. eigenvalues --    0.00553   0.01159   0.03506   0.04115   0.04968
 Alpha virt. eigenvalues --    0.05561   0.05859   0.06126   0.06450   0.07184

  Beta  occ. eigenvalues --  -88.06762 -88.06533 -88.06366 -24.34753 -24.34682
  Beta  occ. eigenvalues --  -24.34563 -24.34440 -24.34432 -24.34405 -24.34113
  Beta  occ. eigenvalues --  -24.34017 -24.34002 -18.88327 -18.88249 -18.87790
  Beta  occ. eigenvalues --  -18.85456 -18.85265 -18.85153 -18.84985 -18.84965
  Beta  occ. eigenvalues --  -18.84619 -18.84294 -18.83850 -18.83761 -17.83541
  Beta  occ. eigenvalues --  -14.19859 -14.16556 -14.14495 -14.13863 -11.58413
  Beta  occ. eigenvalues --  -11.58373 -11.58352 -10.34028 -10.33984 -10.33832
  Beta  occ. eigenvalues --  -10.21369 -10.20953 -10.20399 -10.17726 -10.16339
  Beta  occ. eigenvalues --  -10.15298 -10.13617 -10.13144 -10.11247 -10.08991
  Beta  occ. eigenvalues --  -10.08024 -10.07910 -10.07479 -10.07455 -10.06767
  Beta  occ. eigenvalues --  -10.06698 -10.06252 -10.06220 -10.06203  -7.96617
  Beta  occ. eigenvalues --   -7.96347  -7.96219  -6.16138  -6.16085  -6.15954
  Beta  occ. eigenvalues --   -6.15872  -6.15817  -6.15746  -6.15698  -6.15686
  Beta  occ. eigenvalues --   -6.15557  -5.43425  -5.43372  -5.43353  -5.43343
  Beta  occ. eigenvalues --   -5.43332  -2.36525  -1.38356  -1.38330  -1.37955
  Beta  occ. eigenvalues --   -1.28348  -1.28337  -1.28306  -1.28296  -1.27888
  Beta  occ. eigenvalues --   -1.27848  -1.25920  -1.25805  -1.24925  -1.20813
  Beta  occ. eigenvalues --   -1.19878  -1.19195  -1.15652  -1.13667  -1.12784
  Beta  occ. eigenvalues --   -1.10110  -1.08075  -1.07536  -1.07169  -1.05999
  Beta  occ. eigenvalues --   -1.05721  -1.05537  -0.98767  -0.96821  -0.93785
  Beta  occ. eigenvalues --   -0.92124  -0.89873  -0.86124  -0.83568  -0.82351
  Beta  occ. eigenvalues --   -0.80774  -0.80633  -0.80495  -0.79977  -0.78964
  Beta  occ. eigenvalues --   -0.78388  -0.74646  -0.73243  -0.72684  -0.72594
  Beta  occ. eigenvalues --   -0.72170  -0.70114  -0.68311  -0.68260  -0.68198
  Beta  occ. eigenvalues --   -0.68191  -0.67818  -0.67769  -0.66853  -0.66370
  Beta  occ. eigenvalues --   -0.64967  -0.64163  -0.63834  -0.63574  -0.63309
  Beta  occ. eigenvalues --   -0.63270  -0.63203  -0.63112  -0.63084  -0.63024
  Beta  occ. eigenvalues --   -0.62696  -0.62644  -0.62434  -0.61766  -0.60449
  Beta  occ. eigenvalues --   -0.60050  -0.59562  -0.58205  -0.57633  -0.57063
  Beta  occ. eigenvalues --   -0.56622  -0.56432  -0.56250  -0.55802  -0.55584
  Beta  occ. eigenvalues --   -0.55534  -0.55467  -0.55255  -0.54931  -0.54738
  Beta  occ. eigenvalues --   -0.54493  -0.54442  -0.54383  -0.54068  -0.53767
  Beta  occ. eigenvalues --   -0.53680  -0.53053  -0.52849  -0.52417  -0.52319
  Beta  occ. eigenvalues --   -0.52148  -0.51979  -0.51764  -0.51706  -0.51403
  Beta  occ. eigenvalues --   -0.51101  -0.50746  -0.50142  -0.49678  -0.49539
  Beta  occ. eigenvalues --   -0.49163  -0.49097  -0.48675  -0.47898  -0.47570
  Beta  occ. eigenvalues --   -0.46717  -0.46569  -0.46036  -0.45670  -0.45631
  Beta  occ. eigenvalues --   -0.45255  -0.44997  -0.44704  -0.44441  -0.44280
  Beta  occ. eigenvalues --   -0.43591  -0.43404  -0.43228  -0.43003  -0.42756
  Beta  occ. eigenvalues --   -0.42295  -0.42059  -0.41792  -0.41438  -0.41142
  Beta  occ. eigenvalues --   -0.40832  -0.40765  -0.40364  -0.40185  -0.40101
  Beta  occ. eigenvalues --   -0.39918  -0.39429  -0.39025  -0.38401  -0.38398
  Beta  occ. eigenvalues --   -0.38053  -0.37912  -0.37712  -0.37169  -0.36928
  Beta  occ. eigenvalues --   -0.36719  -0.36036  -0.34217  -0.33820  -0.30118
  Beta  occ. eigenvalues --   -0.29890  -0.27658
  Beta virt. eigenvalues --   -0.07106  -0.05308  -0.04697  -0.01294   0.00506
  Beta virt. eigenvalues --    0.00553   0.01159   0.03506   0.04115   0.04968
  Beta virt. eigenvalues --    0.05561   0.05859   0.06126   0.06450   0.07184

 Mulliken charges and spin densities:
               1          2
     1  C   -0.004368   0.000000
     2  C    0.004512   0.000000
     3  C    0.004966   0.000000
     4  C    0.015252   0.000000
     5  C    0.007673   0.000000
     6  C    0.020131   0.000000
     7  C   -0.028052   0.000000
     8  C    0.065306   0.000000
     9  C    0.083274   0.000000
    10  H    0.005985   0.000000
    11  H    0.015083   0.000000
    12  H    0.017315   0.000000
    13  H    0.012590   0.000000
    14  H   -0.026858   0.000000
    15  O   -0.235740   0.000000
    16  O   -0.232964   0.000000
    17  O   -0.461229   0.000000
    18  O   -0.452941   0.000000
    19  O   -0.467097   0.000000
    20  S    0.866545   0.000000
    21  S    0.838759   0.000000
    22  S    0.843779   0.000000
    23  O   -0.455022   0.000000
    24  O   -0.396506   0.000000
    25  O   -0.449176   0.000000
    26  O   -0.391054   0.000000
    27  O   -0.450942   0.000000
    28  O   -0.402379   0.000000
    29  C    0.441962   0.000000
    30  C    0.441349   0.000000
    31  C    0.436166   0.000000
    32  F   -0.117024   0.000000
    33  F   -0.112240   0.000000
    34  F   -0.120587   0.000000
    35  F   -0.105709   0.000000
    36  F   -0.116882   0.000000
    37  F   -0.115676   0.000000
    38  F   -0.114359   0.000000
    39  F   -0.116623   0.000000
    40  F   -0.123258   0.000000
    41  C    0.258611   0.000000
    42  H    0.042646   0.000000
    43  C   -0.153780   0.000000
    44  C   -0.149084   0.000000
    45  C   -0.160055   0.000000
    46  C    0.091510   0.000000
    47  C    0.031221   0.000000
    48  C    0.004786   0.000000
    49  H    0.071099   0.000000
    50  H    0.061444   0.000000
    51  H    0.032248   0.000000
    52  N    0.136048   0.000000
    53  N    0.124797   0.000000
    54  N   -0.175874   0.000000
    55  N   -0.044044   0.000000
    56  C    0.116432   0.000000
    57  H    0.071848   0.000000
    58  Lu   0.589723   0.000000
    59  O   -0.301003   0.000000
    60  C    0.132519   0.000000
    61  H    0.102912   0.000000
    62  H    0.067088   0.000000
    63  H    0.076188   0.000000
    64  C    0.100863   0.000000
    65  H    0.096720   0.000000
    66  H    0.090732   0.000000
    67  H    0.060443   0.000000
 Sum of Mulliken charges =  -0.00000   0.00000

 Dipole moment (field-independent basis, Debye):
    X=             11.0278    Y=             -0.1851    Z=             -1.6223  Tot=             11.1480
 Quadrupole moment (field-independent basis, Debye-Ang):
   XX=           -338.5606   YY=           -346.8256   ZZ=           -332.9500
   XY=            -34.7840   XZ=             -0.0246   YZ=              2.3086

 Normal termination of Gaussian 16 at Thu May  1 10:35:41 2025.
